  python dir          : /gpfs/pace1/project/chbe-medford/medford-share/gits/frozen/ben_espresso_8_24_2017/espresso
  espresso dir        : /nv/hp22/amedford6/medford-shared/builds/espresso/5.1.r11289-pybeef/intel-16.0+mvapich2-2.2+mkl-11.3/espresso-5.1.r11289-pybeef/bin
  pseudo dir          : /gpfs/pace1/project/chbe-medford/medford-share/data/pseudos/SSSP_eff_PBE
  ase-espresso py git : GITVERSION



     Program PWSCF v.5.1rc2 starts on 25Nov2017 at 23: 3:52 

     This program is part of the open-source Quantum ESPRESSO suite
     for quantum simulation of materials; please cite
         "P. Giannozzi et al., J. Phys.:Condens. Matter 21 395502 (2009);
          URL http://www.quantum-espresso.org", 
     in publications or presentations arising from this work. More details at
     http://www.quantum-espresso.org/quote

     Parallel version (MPI), running on    49 processors
     R & G space division:  proc/nbgrp/npool/nimage =      49
     Reading input from pw.inp
     Message from routine read_cards :
     DEPRECATED: no units specified in CELL_PARAMETERS card

     Current dimensions of program PWSCF are:
     Max number of different atomic species (ntypx) = 10
     Max number of k-points (npk) =  40000
     Max angular momentum in pseudopotentials (lmaxx) =  3

     IMPORTANT: XC functional enforced from input :
     Exchange-correlation      = PBE ( 1  4  3  4 0)
     Any further DFT definition will be discarded
     Please, verify this is what you really want

               file Pd.UPF: wavefunction(s)  4S 5S 4D renormalized

     Subspace diagonalization in iterative solution of the eigenvalue problem:
     a serial algorithm will be used

 
     Parallelization info
     --------------------
     sticks:   dense  smooth     PW     G-vecs:    dense   smooth      PW
     Min         113      60     16                18343     7118    1006
     Max         114      61     17                18356     7174    1015
     Sum        5551    2941    805               899157   350049   49521
 


     bravais-lattice index     =            0
     lattice parameter (alat)  =       1.8897  a.u.
     unit-cell volume          =    8852.9658 (a.u.)^3
     number of atoms/cell      =           18
     number of atomic types    =            2
     number of electrons       =       330.00
     number of Kohn-Sham states=          175
     kinetic-energy cutoff     =      44.0992  Ry
     charge density cutoff     =     330.7439  Ry
     convergence threshold     =      7.3E-08
     mixing beta               =       0.0500
     number of iterations used =            8  local-TF  mixing
     Exchange-correlation      = PBE ( 1  4  3  4 0)
     nstep                     =           50


     celldm(1)=   1.889726  celldm(2)=   0.000000  celldm(3)=   0.000000
     celldm(4)=   0.000000  celldm(5)=   0.000000  celldm(6)=   0.000000

     crystal axes: (cart. coord. in units of alat)
               a(1) = (   8.251936   0.000000   0.000000 )  
               a(2) = (   4.125968   7.146386   0.000000 )  
               a(3) = (   0.000000   0.000000  22.245893 )  

     reciprocal axes: (cart. coord. in units 2 pi/alat)
               b(1) = (  0.121184 -0.069965  0.000000 )  
               b(2) = (  0.000000  0.139931  0.000000 )  
               b(3) = (  0.000000  0.000000  0.044952 )  


     PseudoPot. # 1 for Ag read from file:
     /gpfs/pace1/project/chbe-medford/medford-share/data/pseudos/SSSP_eff_PBE/Ag.UPF
     MD5 check sum: d66d668201baa78d5eb5b04ef7011058
     Pseudo is Ultrasoft + core correction, Zval = 19.0
     Generated by new atomic code, or converted to UPF format
     Using radial grid of  887 points,  6 beta functions with: 
                l(1) =   0
                l(2) =   0
                l(3) =   1
                l(4) =   1
                l(5) =   2
                l(6) =   2
     Q(r) pseudized with  6 coefficients,  rinner =    1.300   1.300   1.300
                                                       1.300   1.300

     PseudoPot. # 2 for Pd read from file:
     /gpfs/pace1/project/chbe-medford/medford-share/data/pseudos/SSSP_eff_PBE/Pd.UPF
     MD5 check sum: ea89d3e00be872097c4300495f51d8eb
     Pseudo is Projector augmented-wave + core cor, Zval = 18.0
     Generated using "atomic" code by A. Dal Corso  v.5.1
     Shape of augmentation charge: PSQ
     Using radial grid of 1235 points,  6 beta functions with: 
                l(1) =   0
                l(2) =   0
                l(3) =   1
                l(4) =   1
                l(5) =   2
                l(6) =   2
     Q(r) pseudized with 0 coefficients 


     atomic species   valence    mass     pseudopotential
        Ag1           19.00   107.86820     Ag( 1.00)
        Pd1           18.00   106.42000     Pd( 1.00)

     No symmetry found



   Cartesian axes

     site n.     atom                  positions (alat units)
         1           Ag1 tau(   1) = (   8.2519361   1.5880858  10.0000000  )
         2           Pd1 tau(   2) = (   2.7506454   1.5880858  10.0000000  )
         3           Ag1 tau(   3) = (   5.5012908   1.5880858  10.0000000  )
         4           Pd1 tau(   4) = (   9.6272588   3.9702146  10.0000000  )
         5           Pd1 tau(   5) = (   4.1259681   3.9702146  10.0000000  )
         6           Pd1 tau(   6) = (   6.8766134   3.9702146  10.0000000  )
         7           Ag1 tau(   7) = (  11.0025815   6.3523434  10.0000000  )
         8           Pd1 tau(   8) = (   5.5012908   6.3523434  10.0000000  )
         9           Ag1 tau(   9) = (   8.2519361   6.3523434  10.0000000  )
        10           Pd1 tau(  10) = (   0.0000000   0.0000000  12.2458925  )
        11           Ag1 tau(  11) = (   2.7506454   0.0000000  12.2458925  )
        12           Pd1 tau(  12) = (   5.5012908   0.0000000  12.2458925  )
        13           Pd1 tau(  13) = (   1.3753227   2.3821288  12.2458925  )
        14           Pd1 tau(  14) = (   4.1259681   2.3821288  12.2458925  )
        15           Pd1 tau(  15) = (   6.8766134   2.3821288  12.2458925  )
        16           Pd1 tau(  16) = (   2.7506454   4.7642575  12.2458925  )
        17           Ag1 tau(  17) = (   5.5012908   4.7642575  12.2458925  )
        18           Pd1 tau(  18) = (   8.2519361   4.7642575  12.2458925  )

     number of k points=    20  Fermi-Dirac smearing, width (Ry)=  0.0073
                       cart. coord. in units 2pi/alat
        k(    1) = (   0.0000000   0.0000000   0.0000000), wk =   0.0555556
        k(    2) = (   0.0000000   0.0233218   0.0000000), wk =   0.1111111
        k(    3) = (   0.0000000   0.0466436   0.0000000), wk =   0.1111111
        k(    4) = (   0.0000000  -0.0699654   0.0000000), wk =   0.0555556
        k(    5) = (   0.0201973   0.0349827   0.0000000), wk =   0.1111111
        k(    6) = (   0.0201973  -0.0816263   0.0000000), wk =   0.1111111
        k(    7) = (   0.0403946  -0.0699654   0.0000000), wk =   0.1111111
        k(    8) = (  -0.0201973   0.0116609   0.0000000), wk =   0.1111111
        k(    9) = (   0.0201973   0.0116609   0.0000000), wk =   0.1111111
        k(   10) = (  -0.0403946   0.0233218   0.0000000), wk =   0.1111111
        k(   11) = (   0.0403946   0.0233218   0.0000000), wk =   0.1111111
        k(   12) = (   0.0605918  -0.0349827   0.0000000), wk =   0.0555556
        k(   13) = (  -0.0605918  -0.0349827   0.0000000), wk =   0.0555556
        k(   14) = (  -0.0201973   0.0349827   0.0000000), wk =   0.1111111
        k(   15) = (   0.0403946   0.0000000   0.0000000), wk =   0.1111111
        k(   16) = (  -0.0201973  -0.0816263   0.0000000), wk =   0.1111111
        k(   17) = (   0.0807891  -0.0233218   0.0000000), wk =   0.1111111
        k(   18) = (  -0.0605918  -0.0583045   0.0000000), wk =   0.1111111
        k(   19) = (   0.0807891   0.0233218   0.0000000), wk =   0.1111111
        k(   20) = (  -0.0605918   0.0583045   0.0000000), wk =   0.1111111

     Dense  grid:   899157 G-vectors     FFT dimensions: (  96,  96, 243)

     Smooth grid:   350049 G-vectors     FFT dimensions: (  72,  72, 180)

     Largest allocated arrays     est. size (Mb)     dimensions
        Kohn-Sham Wavefunctions         2.48 Mb     (     929,  175)
        NL pseudopotentials             4.59 Mb     (     929,  324)
        Each V/rho on FFT grid          0.70 Mb     (   46080)
        Each G-vector array             0.14 Mb     (   18345)
        G-vector shells                 0.06 Mb     (    8231)
     Largest temporary arrays     est. size (Mb)     dimensions
        Each subspace H/S matrix        0.47 Mb     (     175,  175)
        Each <psi_i|beta_j> matrix      0.87 Mb     (     324,  175)
        Arrays for rho mixing           5.62 Mb     (   46080,    8)

     Check: negative/imaginary core charge=   -0.000001    0.000000

     Initial potential from superposition of free atoms
     Check: negative starting charge=   -0.018621

     starting charge  326.99513, renormalised to  330.00000

     negative rho (up, down):  1.879E-02 0.000E+00
     Starting wfc are  198 randomized atomic wfcs
     Checking if some PAW data can be deallocated... 

     total cpu time spent up to now is       29.1 secs

     per-process dynamical memory:    86.4 Mb

     Self-consistent Calculation

     iteration #  1     ecut=    44.10 Ry     beta=0.05
     CG style diagonalization
     ethr =  1.00E-02,  avg # of iterations =  2.5

     negative rho (up, down):  1.802E-02 0.000E+00

     total cpu time spent up to now is      140.0 secs

     total energy              =   -7918.34319941 Ry
     Harris-Foulkes estimate   =   -7918.62247803 Ry
     estimated scf accuracy    <      13.21394330 Ry

     iteration #  2     ecut=    44.10 Ry     beta=0.05
     CG style diagonalization
     ethr =  4.00E-03,  avg # of iterations =  3.0

     negative rho (up, down):  1.632E-02 0.000E+00

     total cpu time spent up to now is      237.2 secs

     total energy              =   -7917.83862628 Ry
     Harris-Foulkes estimate   =   -7918.56695743 Ry
     estimated scf accuracy    <      10.26309236 Ry

     iteration #  3     ecut=    44.10 Ry     beta=0.05
     CG style diagonalization
     ethr =  3.11E-03,  avg # of iterations =  3.0

     negative rho (up, down):  1.540E-02 0.000E+00

     total cpu time spent up to now is      334.5 secs

     total energy              =   -7917.28714070 Ry
     Harris-Foulkes estimate   =   -7918.00600127 Ry
     estimated scf accuracy    <       4.82913374 Ry

     iteration #  4     ecut=    44.10 Ry     beta=0.05
     CG style diagonalization
     ethr =  1.46E-03,  avg # of iterations =  3.0

     negative rho (up, down):  1.562E-02 0.000E+00

     total cpu time spent up to now is      430.4 secs

     total energy              =   -7917.26499514 Ry
     Harris-Foulkes estimate   =   -7917.50741255 Ry
     estimated scf accuracy    <       1.40321498 Ry

     iteration #  5     ecut=    44.10 Ry     beta=0.05
     CG style diagonalization
     ethr =  4.25E-04,  avg # of iterations =  3.2

     negative rho (up, down):  1.508E-02 0.000E+00

     total cpu time spent up to now is      533.2 secs

     total energy              =   -7917.37478806 Ry
     Harris-Foulkes estimate   =   -7917.40979631 Ry
     estimated scf accuracy    <       0.45344857 Ry

     iteration #  6     ecut=    44.10 Ry     beta=0.05
     CG style diagonalization
     ethr =  1.37E-04,  avg # of iterations =  3.0

     negative rho (up, down):  1.432E-02 0.000E+00

     total cpu time spent up to now is      629.9 secs

     total energy              =   -7917.27595122 Ry
     Harris-Foulkes estimate   =   -7917.38834688 Ry
     estimated scf accuracy    <       0.38052414 Ry

     iteration #  7     ecut=    44.10 Ry     beta=0.05
     CG style diagonalization
     ethr =  1.15E-04,  avg # of iterations =  3.6

     negative rho (up, down):  1.427E-02 0.000E+00

     total cpu time spent up to now is      751.6 secs

     total energy              =   -7917.31629783 Ry
     Harris-Foulkes estimate   =   -7917.32541354 Ry
     estimated scf accuracy    <       0.13823895 Ry

     iteration #  8     ecut=    44.10 Ry     beta=0.05
     CG style diagonalization
     ethr =  4.19E-05,  avg # of iterations =  3.0

     negative rho (up, down):  1.332E-02 0.000E+00

     total cpu time spent up to now is      850.8 secs

     total energy              =   -7917.31744530 Ry
     Harris-Foulkes estimate   =   -7917.32498517 Ry
     estimated scf accuracy    <       0.09497918 Ry

     iteration #  9     ecut=    44.10 Ry     beta=0.05
     CG style diagonalization
     ethr =  2.88E-05,  avg # of iterations =  3.0

     negative rho (up, down):  1.071E-02 0.000E+00

     total cpu time spent up to now is      948.6 secs

     total energy              =   -7917.30761662 Ry
     Harris-Foulkes estimate   =   -7917.31955654 Ry
     estimated scf accuracy    <       0.06832912 Ry

     iteration # 10     ecut=    44.10 Ry     beta=0.05
     CG style diagonalization
     ethr =  2.07E-05,  avg # of iterations =  3.1

     negative rho (up, down):  1.009E-02 0.000E+00

     total cpu time spent up to now is     1052.9 secs

     total energy              =   -7917.31139464 Ry
     Harris-Foulkes estimate   =   -7917.31350408 Ry
     estimated scf accuracy    <       0.03920325 Ry

     iteration # 11     ecut=    44.10 Ry     beta=0.05
     CG style diagonalization
     ethr =  1.19E-05,  avg # of iterations =  3.0

     negative rho (up, down):  7.334E-03 0.000E+00

     total cpu time spent up to now is     1150.7 secs

     total energy              =   -7917.30466625 Ry
     Harris-Foulkes estimate   =   -7917.31212705 Ry
     estimated scf accuracy    <       0.03460875 Ry

     iteration # 12     ecut=    44.10 Ry     beta=0.05
     CG style diagonalization
     ethr =  1.05E-05,  avg # of iterations =  3.2

     negative rho (up, down):  7.552E-03 0.000E+00

     total cpu time spent up to now is     1256.1 secs

     total energy              =   -7917.30800215 Ry
     Harris-Foulkes estimate   =   -7917.30810453 Ry
     estimated scf accuracy    <       0.01437929 Ry

     iteration # 13     ecut=    44.10 Ry     beta=0.05
     CG style diagonalization
     c_bands:  1 eigenvalues not converged
     ethr =  4.36E-06,  avg # of iterations =  3.0

     negative rho (up, down):  7.133E-03 0.000E+00

     total cpu time spent up to now is     1356.4 secs

     total energy              =   -7917.30765503 Ry
     Harris-Foulkes estimate   =   -7917.30834474 Ry
     estimated scf accuracy    <       0.01388835 Ry

     iteration # 14     ecut=    44.10 Ry     beta=0.05
     CG style diagonalization
     ethr =  4.21E-06,  avg # of iterations =  3.0

     negative rho (up, down):  6.403E-03 0.000E+00

     total cpu time spent up to now is     1454.9 secs

     total energy              =   -7917.30597144 Ry
     Harris-Foulkes estimate   =   -7917.30793780 Ry
     estimated scf accuracy    <       0.01233333 Ry

     iteration # 15     ecut=    44.10 Ry     beta=0.05
     CG style diagonalization
     ethr =  3.74E-06,  avg # of iterations =  3.0

     negative rho (up, down):  5.750E-03 0.000E+00

     total cpu time spent up to now is     1553.5 secs

     total energy              =   -7917.30557230 Ry
     Harris-Foulkes estimate   =   -7917.30636703 Ry
     estimated scf accuracy    <       0.00861363 Ry

     iteration # 16     ecut=    44.10 Ry     beta=0.05
     CG style diagonalization
     c_bands:  1 eigenvalues not converged
     ethr =  2.61E-06,  avg # of iterations =  3.0

     negative rho (up, down):  5.940E-03 0.000E+00

     total cpu time spent up to now is     1654.9 secs

     total energy              =   -7917.30405915 Ry
     Harris-Foulkes estimate   =   -7917.30583482 Ry
     estimated scf accuracy    <       0.00782540 Ry

     iteration # 17     ecut=    44.10 Ry     beta=0.05
     CG style diagonalization
     c_bands:  1 eigenvalues not converged
     ethr =  2.37E-06,  avg # of iterations =  3.1

     negative rho (up, down):  6.281E-03 0.000E+00

     total cpu time spent up to now is     1758.8 secs

     total energy              =   -7917.30496502 Ry
     Harris-Foulkes estimate   =   -7917.30481512 Ry
     estimated scf accuracy    <       0.00467126 Ry

     iteration # 18     ecut=    44.10 Ry     beta=0.05
     CG style diagonalization
     ethr =  1.42E-06,  avg # of iterations =  3.0

     negative rho (up, down):  5.601E-03 0.000E+00

     total cpu time spent up to now is     1858.0 secs

     total energy              =   -7917.30476989 Ry
     Harris-Foulkes estimate   =   -7917.30515764 Ry
     estimated scf accuracy    <       0.00578681 Ry

     iteration # 19     ecut=    44.10 Ry     beta=0.05
     CG style diagonalization
     ethr =  1.42E-06,  avg # of iterations =  3.0

     negative rho (up, down):  1.793E-02 0.000E+00

     total cpu time spent up to now is     1957.7 secs

     total energy              =   -7917.30448396 Ry
     Harris-Foulkes estimate   =   -7917.30512835 Ry
     estimated scf accuracy    <       0.00419857 Ry

     iteration # 20     ecut=    44.10 Ry     beta=0.05
     CG style diagonalization
     ethr =  1.27E-06,  avg # of iterations =  3.3

     negative rho (up, down):  1.815E-02 0.000E+00

     total cpu time spent up to now is     2070.7 secs

     total energy              =   -7917.30483683 Ry
     Harris-Foulkes estimate   =   -7917.30502755 Ry
     estimated scf accuracy    <       0.00338651 Ry

     iteration # 21     ecut=    44.10 Ry     beta=0.05
     CG style diagonalization
     ethr =  1.03E-06,  avg # of iterations =  3.0

     negative rho (up, down):  2.119E-02 0.000E+00

     total cpu time spent up to now is     2169.4 secs

     total energy              =   -7917.30471933 Ry
     Harris-Foulkes estimate   =   -7917.30490434 Ry
     estimated scf accuracy    <       0.00261736 Ry

     iteration # 22     ecut=    44.10 Ry     beta=0.05
     CG style diagonalization
     ethr =  7.93E-07,  avg # of iterations =  3.4

     negative rho (up, down):  1.577E-02 0.000E+00

     total cpu time spent up to now is     2285.3 secs

     total energy              =   -7917.30500043 Ry
     Harris-Foulkes estimate   =   -7917.30502424 Ry
     estimated scf accuracy    <       0.00242004 Ry

     iteration # 23     ecut=    44.10 Ry     beta=0.05
     CG style diagonalization
     ethr =  7.33E-07,  avg # of iterations =  3.0

     negative rho (up, down):  1.922E-02 0.000E+00

     total cpu time spent up to now is     2384.1 secs

     total energy              =   -7917.30460561 Ry
     Harris-Foulkes estimate   =   -7917.30503204 Ry
     estimated scf accuracy    <       0.00275967 Ry

     iteration # 24     ecut=    44.10 Ry     beta=0.05
     CG style diagonalization
     ethr =  7.33E-07,  avg # of iterations =  3.3

     negative rho (up, down):  2.783E-02 0.000E+00

     total cpu time spent up to now is     2495.2 secs

     total energy              =   -7917.30497351 Ry
     Harris-Foulkes estimate   =   -7917.30484915 Ry
     estimated scf accuracy    <       0.00158018 Ry

     iteration # 25     ecut=    44.10 Ry     beta=0.05
     CG style diagonalization
     ethr =  4.79E-07,  avg # of iterations =  3.0

     negative rho (up, down):  2.527E-02 0.000E+00

     total cpu time spent up to now is     2594.4 secs

     total energy              =   -7917.30491478 Ry
     Harris-Foulkes estimate   =   -7917.30502369 Ry
     estimated scf accuracy    <       0.00157994 Ry

     iteration # 26     ecut=    44.10 Ry     beta=0.05
     CG style diagonalization
     ethr =  4.79E-07,  avg # of iterations =  3.0

     negative rho (up, down):  2.249E-02 0.000E+00

     total cpu time spent up to now is     2692.8 secs

     total energy              =   -7917.30488238 Ry
     Harris-Foulkes estimate   =   -7917.30492987 Ry
     estimated scf accuracy    <       0.00145281 Ry

     iteration # 27     ecut=    44.10 Ry     beta=0.05
     CG style diagonalization
     ethr =  4.40E-07,  avg # of iterations =  3.0

     negative rho (up, down):  2.339E-02 0.000E+00

     total cpu time spent up to now is     2792.3 secs

     total energy              =   -7917.30489593 Ry
     Harris-Foulkes estimate   =   -7917.30490266 Ry
     estimated scf accuracy    <       0.00137658 Ry

     iteration # 28     ecut=    44.10 Ry     beta=0.05
     CG style diagonalization
     ethr =  4.17E-07,  avg # of iterations =  3.5

     negative rho (up, down):  2.050E-02 0.000E+00

     total cpu time spent up to now is     2914.9 secs

     total energy              =   -7917.30480779 Ry
     Harris-Foulkes estimate   =   -7917.30509553 Ry
     estimated scf accuracy    <       0.00171672 Ry

     iteration # 29     ecut=    44.10 Ry     beta=0.05
     CG style diagonalization
     ethr =  4.17E-07,  avg # of iterations =  3.0

     negative rho (up, down):  2.162E-02 0.000E+00

     total cpu time spent up to now is     3014.9 secs

     total energy              =   -7917.30491189 Ry
     Harris-Foulkes estimate   =   -7917.30489367 Ry
     estimated scf accuracy    <       0.00101856 Ry

     iteration # 30     ecut=    44.10 Ry     beta=0.05
     CG style diagonalization
     ethr =  3.09E-07,  avg # of iterations =  3.0

     negative rho (up, down):  1.953E-02 0.000E+00

     total cpu time spent up to now is     3114.9 secs

     total energy              =   -7917.30485757 Ry
     Harris-Foulkes estimate   =   -7917.30492228 Ry
     estimated scf accuracy    <       0.00093863 Ry

     iteration # 31     ecut=    44.10 Ry     beta=0.05
     CG style diagonalization
     ethr =  2.84E-07,  avg # of iterations =  3.0

     negative rho (up, down):  2.577E-02 0.000E+00

     total cpu time spent up to now is     3214.1 secs

     total energy              =   -7917.30488962 Ry
     Harris-Foulkes estimate   =   -7917.30490559 Ry
     estimated scf accuracy    <       0.00079572 Ry

     iteration # 32     ecut=    44.10 Ry     beta=0.05
     CG style diagonalization
     ethr =  2.41E-07,  avg # of iterations =  3.0

     negative rho (up, down):  2.542E-02 0.000E+00

     total cpu time spent up to now is     3312.7 secs

     total energy              =   -7917.30489401 Ry
     Harris-Foulkes estimate   =   -7917.30492420 Ry
     estimated scf accuracy    <       0.00059301 Ry

     iteration # 33     ecut=    44.10 Ry     beta=0.05
     CG style diagonalization
     ethr =  1.80E-07,  avg # of iterations =  3.0

     negative rho (up, down):  2.100E-02 0.000E+00

     total cpu time spent up to now is     3412.4 secs

     total energy              =   -7917.30481736 Ry
     Harris-Foulkes estimate   =   -7917.30489951 Ry
     estimated scf accuracy    <       0.00054582 Ry

     iteration # 34     ecut=    44.10 Ry     beta=0.05
     CG style diagonalization
     ethr =  1.65E-07,  avg # of iterations =  3.0

     negative rho (up, down):  1.972E-02 0.000E+00

     total cpu time spent up to now is     3511.4 secs

     total energy              =   -7917.30477444 Ry
     Harris-Foulkes estimate   =   -7917.30482521 Ry
     estimated scf accuracy    <       0.00045503 Ry

     iteration # 35     ecut=    44.10 Ry     beta=0.05
     CG style diagonalization
     ethr =  1.38E-07,  avg # of iterations =  3.0

     negative rho (up, down):  1.897E-02 0.000E+00

     total cpu time spent up to now is     3610.5 secs

     total energy              =   -7917.30479383 Ry
     Harris-Foulkes estimate   =   -7917.30479297 Ry
     estimated scf accuracy    <       0.00042039 Ry

     iteration # 36     ecut=    44.10 Ry     beta=0.05
     CG style diagonalization
     ethr =  1.27E-07,  avg # of iterations =  3.0

     negative rho (up, down):  1.842E-02 0.000E+00

     total cpu time spent up to now is     3709.3 secs

     total energy              =   -7917.30479063 Ry
     Harris-Foulkes estimate   =   -7917.30479608 Ry
     estimated scf accuracy    <       0.00042613 Ry

     iteration # 37     ecut=    44.10 Ry     beta=0.05
     CG style diagonalization
     ethr =  1.27E-07,  avg # of iterations =  3.0

     negative rho (up, down):  1.809E-02 0.000E+00

     total cpu time spent up to now is     3808.3 secs

     total energy              =   -7917.30479288 Ry
     Harris-Foulkes estimate   =   -7917.30479396 Ry
     estimated scf accuracy    <       0.00037393 Ry

     iteration # 38     ecut=    44.10 Ry     beta=0.05
     CG style diagonalization
     ethr =  1.13E-07,  avg # of iterations =  3.0

     negative rho (up, down):  1.954E-02 0.000E+00

     total cpu time spent up to now is     3907.2 secs

     total energy              =   -7917.30478712 Ry
     Harris-Foulkes estimate   =   -7917.30479768 Ry
     estimated scf accuracy    <       0.00034790 Ry

     iteration # 39     ecut=    44.10 Ry     beta=0.05
     CG style diagonalization
     ethr =  1.05E-07,  avg # of iterations =  3.0

     negative rho (up, down):  2.030E-02 0.000E+00

     total cpu time spent up to now is     4006.5 secs

     total energy              =   -7917.30478102 Ry
     Harris-Foulkes estimate   =   -7917.30478998 Ry
     estimated scf accuracy    <       0.00029913 Ry

     iteration # 40     ecut=    44.10 Ry     beta=0.05
     CG style diagonalization
     ethr =  9.06E-08,  avg # of iterations =  3.0

     negative rho (up, down):  2.009E-02 0.000E+00

     total cpu time spent up to now is     4105.5 secs

     total energy              =   -7917.30476728 Ry
     Harris-Foulkes estimate   =   -7917.30478271 Ry
     estimated scf accuracy    <       0.00028297 Ry

     iteration # 41     ecut=    44.10 Ry     beta=0.05
     CG style diagonalization
     ethr =  8.57E-08,  avg # of iterations =  3.0

     negative rho (up, down):  1.649E-02 0.000E+00

     total cpu time spent up to now is     4204.2 secs

     total energy              =   -7917.30476682 Ry
     Harris-Foulkes estimate   =   -7917.30477182 Ry
     estimated scf accuracy    <       0.00026636 Ry

     iteration # 42     ecut=    44.10 Ry     beta=0.05
     CG style diagonalization
     ethr =  8.07E-08,  avg # of iterations =  3.0

     negative rho (up, down):  1.646E-02 0.000E+00

     total cpu time spent up to now is     4303.7 secs

     total energy              =   -7917.30470878 Ry
     Harris-Foulkes estimate   =   -7917.30478112 Ry
     estimated scf accuracy    <       0.00026395 Ry

     iteration # 43     ecut=    44.10 Ry     beta=0.05
     CG style diagonalization
     ethr =  8.00E-08,  avg # of iterations =  3.3

     negative rho (up, down):  1.621E-02 0.000E+00

     total cpu time spent up to now is     4417.9 secs

     total energy              =   -7917.30473658 Ry
     Harris-Foulkes estimate   =   -7917.30474731 Ry
     estimated scf accuracy    <       0.00017558 Ry

     iteration # 44     ecut=    44.10 Ry     beta=0.05
     CG style diagonalization
     ethr =  5.32E-08,  avg # of iterations =  3.0

     negative rho (up, down):  1.631E-02 0.000E+00

     total cpu time spent up to now is     4516.9 secs

     total energy              =   -7917.30470175 Ry
     Harris-Foulkes estimate   =   -7917.30473835 Ry
     estimated scf accuracy    <       0.00014927 Ry

     iteration # 45     ecut=    44.10 Ry     beta=0.05
     CG style diagonalization
     ethr =  4.52E-08,  avg # of iterations =  3.0

     negative rho (up, down):  1.584E-02 0.000E+00

     total cpu time spent up to now is     4616.7 secs

     total energy              =   -7917.30472177 Ry
     Harris-Foulkes estimate   =   -7917.30471256 Ry
     estimated scf accuracy    <       0.00010330 Ry

     iteration # 46     ecut=    44.10 Ry     beta=0.05
     CG style diagonalization
     ethr =  3.13E-08,  avg # of iterations =  3.0

     negative rho (up, down):  1.614E-02 0.000E+00

     total cpu time spent up to now is     4714.9 secs

     total energy              =   -7917.30471673 Ry
     Harris-Foulkes estimate   =   -7917.30472444 Ry
     estimated scf accuracy    <       0.00010546 Ry

     iteration # 47     ecut=    44.10 Ry     beta=0.05
     CG style diagonalization
     ethr =  3.13E-08,  avg # of iterations =  3.0

     negative rho (up, down):  1.903E-02 0.000E+00

     total cpu time spent up to now is     4813.6 secs

     total energy              =   -7917.30470464 Ry
     Harris-Foulkes estimate   =   -7917.30471777 Ry
     estimated scf accuracy    <       0.00009051 Ry

     iteration # 48     ecut=    44.10 Ry     beta=0.05
     CG style diagonalization
     ethr =  2.74E-08,  avg # of iterations =  3.5

     negative rho (up, down):  1.906E-02 0.000E+00

     total cpu time spent up to now is     4936.4 secs

     total energy              =   -7917.30469852 Ry
     Harris-Foulkes estimate   =   -7917.30472259 Ry
     estimated scf accuracy    <       0.00011762 Ry

     iteration # 49     ecut=    44.10 Ry     beta=0.05
     CG style diagonalization
     ethr =  2.74E-08,  avg # of iterations =  3.3

     negative rho (up, down):  2.019E-02 0.000E+00

     total cpu time spent up to now is     5049.7 secs

     total energy              =   -7917.30470249 Ry
     Harris-Foulkes estimate   =   -7917.30470855 Ry
     estimated scf accuracy    <       0.00003709 Ry

     iteration # 50     ecut=    44.10 Ry     beta=0.05
     CG style diagonalization
     ethr =  1.12E-08,  avg # of iterations =  3.0

     negative rho (up, down):  2.030E-02 0.000E+00

     total cpu time spent up to now is     5148.8 secs

     total energy              =   -7917.30470287 Ry
     Harris-Foulkes estimate   =   -7917.30470388 Ry
     estimated scf accuracy    <       0.00002303 Ry

     iteration # 51     ecut=    44.10 Ry     beta=0.05
     CG style diagonalization
     ethr =  6.98E-09,  avg # of iterations =  3.5

     negative rho (up, down):  2.026E-02 0.000E+00

     total cpu time spent up to now is     5271.7 secs

     total energy              =   -7917.30470636 Ry
     Harris-Foulkes estimate   =   -7917.30470664 Ry
     estimated scf accuracy    <       0.00002221 Ry

     iteration # 52     ecut=    44.10 Ry     beta=0.05
     CG style diagonalization
     ethr =  6.73E-09,  avg # of iterations =  3.0

     negative rho (up, down):  2.172E-02 0.000E+00

     total cpu time spent up to now is     5370.3 secs

     total energy              =   -7917.30470444 Ry
     Harris-Foulkes estimate   =   -7917.30470670 Ry
     estimated scf accuracy    <       0.00001763 Ry

     iteration # 53     ecut=    44.10 Ry     beta=0.05
     CG style diagonalization
     ethr =  5.34E-09,  avg # of iterations =  3.0

     negative rho (up, down):  2.164E-02 0.000E+00

     total cpu time spent up to now is     5469.2 secs

     total energy              =   -7917.30470283 Ry
     Harris-Foulkes estimate   =   -7917.30470506 Ry
     estimated scf accuracy    <       0.00001448 Ry

     iteration # 54     ecut=    44.10 Ry     beta=0.05
     CG style diagonalization
     ethr =  4.39E-09,  avg # of iterations =  3.0

     negative rho (up, down):  2.144E-02 0.000E+00

     total cpu time spent up to now is     5568.7 secs

     total energy              =   -7917.30470295 Ry
     Harris-Foulkes estimate   =   -7917.30470315 Ry
     estimated scf accuracy    <       0.00001162 Ry

     iteration # 55     ecut=    44.10 Ry     beta=0.05
     CG style diagonalization
     ethr =  3.52E-09,  avg # of iterations =  3.0

     negative rho (up, down):  2.103E-02 0.000E+00

     total cpu time spent up to now is     5668.1 secs

     total energy              =   -7917.30470379 Ry
     Harris-Foulkes estimate   =   -7917.30470302 Ry
     estimated scf accuracy    <       0.00001072 Ry

     iteration # 56     ecut=    44.10 Ry     beta=0.05
     CG style diagonalization
     ethr =  3.25E-09,  avg # of iterations =  3.0

     negative rho (up, down):  2.202E-02 0.000E+00

     total cpu time spent up to now is     5766.8 secs

     total energy              =   -7917.30470386 Ry
     Harris-Foulkes estimate   =   -7917.30470399 Ry
     estimated scf accuracy    <       0.00000926 Ry

     iteration # 57     ecut=    44.10 Ry     beta=0.05
     CG style diagonalization
     ethr =  2.81E-09,  avg # of iterations =  3.2

     negative rho (up, down):  2.237E-02 0.000E+00

     total cpu time spent up to now is     5872.6 secs

     total energy              =   -7917.30470456 Ry
     Harris-Foulkes estimate   =   -7917.30470456 Ry
     estimated scf accuracy    <       0.00000356 Ry

     iteration # 58     ecut=    44.10 Ry     beta=0.05
     CG style diagonalization
     ethr =  1.08E-09,  avg # of iterations =  3.0

     negative rho (up, down):  2.239E-02 0.000E+00

     total cpu time spent up to now is     5971.7 secs

     total energy              =   -7917.30470490 Ry
     Harris-Foulkes estimate   =   -7917.30470468 Ry
     estimated scf accuracy    <       0.00000254 Ry

     iteration # 59     ecut=    44.10 Ry     beta=0.05
     CG style diagonalization
     ethr =  7.69E-10,  avg # of iterations =  3.0

     negative rho (up, down):  2.225E-02 0.000E+00

     total cpu time spent up to now is     6071.1 secs

     total energy              =   -7917.30470473 Ry
     Harris-Foulkes estimate   =   -7917.30470492 Ry
     estimated scf accuracy    <       0.00000237 Ry

     iteration # 60     ecut=    44.10 Ry     beta=0.05
     CG style diagonalization
     ethr =  7.19E-10,  avg # of iterations =  3.0

     negative rho (up, down):  2.241E-02 0.000E+00

     total cpu time spent up to now is     6170.5 secs

     total energy              =   -7917.30470459 Ry
     Harris-Foulkes estimate   =   -7917.30470481 Ry
     estimated scf accuracy    <       0.00000136 Ry

     iteration # 61     ecut=    44.10 Ry     beta=0.05
     CG style diagonalization
     ethr =  4.11E-10,  avg # of iterations =  3.1

     negative rho (up, down):  2.235E-02 0.000E+00

     total cpu time spent up to now is     6272.1 secs

     total energy              =   -7917.30470484 Ry
     Harris-Foulkes estimate   =   -7917.30470467 Ry
     estimated scf accuracy    <       0.00000088 Ry

     iteration # 62     ecut=    44.10 Ry     beta=0.05
     CG style diagonalization
     ethr =  2.65E-10,  avg # of iterations =  3.0

     negative rho (up, down):  2.217E-02 0.000E+00

     total cpu time spent up to now is     6370.8 secs

     total energy              =   -7917.30470510 Ry
     Harris-Foulkes estimate   =   -7917.30470488 Ry
     estimated scf accuracy    <       0.00000066 Ry

     iteration # 63     ecut=    44.10 Ry     beta=0.05
     CG style diagonalization
     ethr =  2.01E-10,  avg # of iterations =  3.0

     negative rho (up, down):  2.231E-02 0.000E+00

     total cpu time spent up to now is     6470.8 secs

     total energy              =   -7917.30470508 Ry
     Harris-Foulkes estimate   =   -7917.30470514 Ry
     estimated scf accuracy    <       0.00000046 Ry

     iteration # 64     ecut=    44.10 Ry     beta=0.05
     CG style diagonalization
     ethr =  1.40E-10,  avg # of iterations =  3.0

     negative rho (up, down):  2.234E-02 0.000E+00

     total cpu time spent up to now is     6570.1 secs

     total energy              =   -7917.30470521 Ry
     Harris-Foulkes estimate   =   -7917.30470510 Ry
     estimated scf accuracy    <       0.00000034 Ry

     iteration # 65     ecut=    44.10 Ry     beta=0.05
     CG style diagonalization
     ethr =  1.02E-10,  avg # of iterations =  3.0

     negative rho (up, down):  2.230E-02 0.000E+00

     total cpu time spent up to now is     6669.3 secs

     total energy              =   -7917.30470545 Ry
     Harris-Foulkes estimate   =   -7917.30470523 Ry
     estimated scf accuracy    <       0.00000025 Ry

     iteration # 66     ecut=    44.10 Ry     beta=0.05
     CG style diagonalization
     ethr =  7.61E-11,  avg # of iterations =  3.0

     negative rho (up, down):  2.230E-02 0.000E+00

     total cpu time spent up to now is     6768.9 secs

     total energy              =   -7917.30470554 Ry
     Harris-Foulkes estimate   =   -7917.30470545 Ry
     estimated scf accuracy    <       0.00000022 Ry

     iteration # 67     ecut=    44.10 Ry     beta=0.05
     CG style diagonalization
     ethr =  6.71E-11,  avg # of iterations =  3.0

     negative rho (up, down):  2.235E-02 0.000E+00

     total cpu time spent up to now is     6868.0 secs

     total energy              =   -7917.30470556 Ry
     Harris-Foulkes estimate   =   -7917.30470555 Ry
     estimated scf accuracy    <       0.00000019 Ry

     iteration # 68     ecut=    44.10 Ry     beta=0.05
     CG style diagonalization
     ethr =  5.80E-11,  avg # of iterations =  3.0

     negative rho (up, down):  2.239E-02 0.000E+00

     total cpu time spent up to now is     6967.6 secs

     total energy              =   -7917.30470551 Ry
     Harris-Foulkes estimate   =   -7917.30470557 Ry
     estimated scf accuracy    <       0.00000014 Ry

     iteration # 69     ecut=    44.10 Ry     beta=0.05
     CG style diagonalization
     ethr =  4.29E-11,  avg # of iterations =  3.2

     negative rho (up, down):  2.246E-02 0.000E+00

     total cpu time spent up to now is     7077.1 secs

     End of self-consistent calculation

          k = 0.0000 0.0000 0.0000 ( 43889 PWs)   bands (ev):

   -91.3466 -91.3275 -91.3207 -91.3077 -91.2796 -91.2716 -83.6401 -83.6294
   -83.6189 -83.6116 -83.6065 -83.6004 -83.5812 -83.5769 -83.5689 -83.5504
   -83.5392 -83.5319 -54.8965 -54.8737 -54.8712 -54.8519 -54.8362 -54.8178
   -54.8067 -54.7882 -54.7857 -54.7827 -54.7687 -54.7646 -54.7599 -54.7546
   -54.7440 -54.7338 -54.7043 -54.7009 -49.5319 -49.5193 -49.4989 -49.4842
   -49.4764 -49.4664 -49.4658 -49.4359 -49.4266 -49.3959 -49.3940 -49.3851
   -49.3604 -49.3528 -49.3376 -49.3219 -49.3127 -49.3038 -49.2871 -49.2736
   -49.2632 -49.2612 -49.2518 -49.2469 -49.2387 -49.2198 -49.2010 -49.1963
   -49.1820 -49.1669 -49.1511 -49.1411 -49.1357 -49.1312 -49.1225 -49.1000
    -6.1083  -5.3710  -5.3018  -5.2330  -5.1788  -5.0270  -5.0076  -4.9123
    -4.8919  -4.8517  -4.7683  -4.6971  -4.6351  -4.5963  -4.5383  -4.5176
    -4.4319  -4.3530  -4.3217  -4.2055  -4.1754  -4.0377  -3.9797  -3.9392
    -3.8609  -3.8009  -3.7409  -3.6638  -3.5984  -3.5681  -3.4591  -3.4100
    -3.3455  -3.2972  -3.1890  -3.1058  -3.0807  -3.0500  -2.9452  -2.9253
    -2.8848  -2.7575  -2.6921  -2.5563  -2.4726  -2.4407  -2.3942  -2.3448
    -2.2871  -2.2330  -2.2122  -2.1483  -2.0070  -1.9867  -1.9423  -1.8967
    -1.8602  -1.7670  -1.7408  -1.6865  -1.6275  -1.5584  -1.5367  -1.4269
    -1.4039  -1.3212  -1.2911  -1.2543  -1.1739  -1.1361  -1.0845  -1.0281
    -0.9943  -0.9764  -0.9312  -0.9108  -0.8863  -0.8285  -0.7920  -0.7360
    -0.7073  -0.6924  -0.6753  -0.6402  -0.6013  -0.5560  -0.5196  -0.4923
    -0.4644  -0.4348  -0.3881  -0.3642  -0.3360  -0.3115  -0.2707  -0.2381
    -0.2038  -0.1534   1.2913   1.7712   1.8342   1.9195   1.9490

          k = 0.0000 0.0233 0.0000 ( 43809 PWs)   bands (ev):

   -91.3466 -91.3275 -91.3207 -91.3077 -91.2796 -91.2716 -83.6397 -83.6299
   -83.6188 -83.6118 -83.6065 -83.6002 -83.5812 -83.5768 -83.5688 -83.5506
   -83.5389 -83.5319 -54.8965 -54.8737 -54.8713 -54.8519 -54.8362 -54.8177
   -54.8067 -54.7882 -54.7856 -54.7827 -54.7685 -54.7646 -54.7599 -54.7545
   -54.7440 -54.7338 -54.7043 -54.7009 -49.5472 -49.5265 -49.4932 -49.4839
   -49.4738 -49.4687 -49.4503 -49.4309 -49.4191 -49.4018 -49.3821 -49.3746
   -49.3579 -49.3520 -49.3374 -49.3257 -49.3134 -49.3037 -49.2905 -49.2778
   -49.2674 -49.2625 -49.2545 -49.2477 -49.2382 -49.2195 -49.2010 -49.1966
   -49.1815 -49.1671 -49.1506 -49.1412 -49.1363 -49.1315 -49.1218 -49.0999
    -6.0129  -5.3375  -5.2871  -5.1990  -5.1388  -5.0257  -4.9761  -4.8757
    -4.8683  -4.8356  -4.7612  -4.6902  -4.6613  -4.6008  -4.5305  -4.4985
    -4.4220  -4.3606  -4.2955  -4.1825  -4.1496  -4.0474  -4.0053  -3.9636
    -3.8778  -3.8403  -3.7391  -3.6733  -3.6321  -3.5401  -3.4944  -3.4426
    -3.3982  -3.3010  -3.2531  -3.1709  -3.1087  -3.0370  -2.9742  -2.9291
    -2.9023  -2.7316  -2.7035  -2.6213  -2.5515  -2.4753  -2.3948  -2.3530
    -2.2677  -2.2326  -2.2090  -2.1648  -2.1095  -2.0588  -2.0006  -1.9528
    -1.9121  -1.8603  -1.8127  -1.7596  -1.6795  -1.6745  -1.5814  -1.5559
    -1.4882  -1.4607  -1.3815  -1.3095  -1.2599  -1.1944  -1.1657  -1.1205
    -1.0926  -1.0327  -1.0020  -0.9487  -0.8513  -0.8078  -0.7591  -0.7427
    -0.6689  -0.6521  -0.6213  -0.5634  -0.5545  -0.4790  -0.4642  -0.4456
    -0.3868  -0.3541  -0.3216  -0.2593  -0.2183  -0.1744  -0.1151   0.1775
     0.2436   0.2835   1.2124   1.5486   1.6441   1.6661   2.4752

          k = 0.0000 0.0466 0.0000 ( 43792 PWs)   bands (ev):

   -91.3466 -91.3275 -91.3207 -91.3077 -91.2796 -91.2716 -83.6386 -83.6311
   -83.6188 -83.6123 -83.6065 -83.5998 -83.5813 -83.5766 -83.5689 -83.5509
   -83.5384 -83.5321 -54.8968 -54.8739 -54.8714 -54.8521 -54.8363 -54.8176
   -54.8066 -54.7881 -54.7854 -54.7827 -54.7683 -54.7646 -54.7599 -54.7543
   -54.7440 -54.7338 -54.7043 -54.7009 -49.5644 -49.5381 -49.4984 -49.4880
   -49.4740 -49.4602 -49.4307 -49.4182 -49.4095 -49.3921 -49.3752 -49.3598
   -49.3531 -49.3458 -49.3378 -49.3308 -49.3186 -49.3063 -49.2966 -49.2912
   -49.2765 -49.2697 -49.2571 -49.2488 -49.2382 -49.2189 -49.2013 -49.1971
   -49.1807 -49.1675 -49.1490 -49.1413 -49.1381 -49.1317 -49.1213 -49.1001
    -5.7488  -5.3736  -5.1325  -5.0930  -5.0730  -5.0354  -4.8966  -4.8560
    -4.8351  -4.7839  -4.7530  -4.7171  -4.6471  -4.6107  -4.5132  -4.4813
    -4.4305  -4.3232  -4.2781  -4.2043  -4.1629  -4.0762  -4.0244  -4.0016
    -3.9376  -3.8794  -3.7822  -3.6961  -3.6341  -3.5872  -3.5650  -3.5013
    -3.4459  -3.3886  -3.3371  -3.2469  -3.1514  -3.0412  -3.0179  -2.9507
    -2.8859  -2.8021  -2.7500  -2.7085  -2.6452  -2.5399  -2.4670  -2.4503
    -2.3596  -2.3160  -2.2817  -2.2181  -2.1937  -2.1282  -2.0794  -2.0364
    -2.0162  -1.9190  -1.9091  -1.8652  -1.8228  -1.7679  -1.6654  -1.5588
    -1.5084  -1.4824  -1.4051  -1.3593  -1.3407  -1.2533  -1.1879  -1.1384
    -1.0567  -1.0408  -1.0171  -0.9776  -0.9398  -0.8745  -0.7794  -0.7553
    -0.7318  -0.6545  -0.6150  -0.5604  -0.4958  -0.4679  -0.4006  -0.3666
    -0.3325  -0.2981  -0.2314  -0.1973  -0.1531  -0.0021   0.0841   0.6515
     1.2022   1.2470   1.4852   1.5294   1.5541   2.1883   3.2876

          k = 0.0000-0.0700 0.0000 ( 43744 PWs)   bands (ev):

   -91.3466 -91.3275 -91.3207 -91.3077 -91.2796 -91.2716 -83.6378 -83.6318
   -83.6188 -83.6124 -83.6065 -83.5996 -83.5814 -83.5765 -83.5689 -83.5511
   -83.5382 -83.5322 -54.8968 -54.8740 -54.8714 -54.8522 -54.8362 -54.8176
   -54.8066 -54.7881 -54.7854 -54.7826 -54.7682 -54.7646 -54.7599 -54.7542
   -54.7441 -54.7338 -54.7043 -54.7010 -49.5704 -49.5422 -49.5017 -49.4894
   -49.4739 -49.4568 -49.4275 -49.4106 -49.3972 -49.3845 -49.3713 -49.3628
   -49.3525 -49.3393 -49.3323 -49.3289 -49.3185 -49.3080 -49.3044 -49.2978
   -49.2871 -49.2712 -49.2568 -49.2483 -49.2383 -49.2190 -49.2013 -49.1979
   -49.1802 -49.1678 -49.1473 -49.1424 -49.1390 -49.1318 -49.1215 -49.0998
    -5.4766  -5.4232  -5.1304  -5.0745  -5.0119  -4.9778  -4.9541  -4.8361
    -4.8107  -4.7677  -4.7451  -4.6975  -4.6297  -4.6064  -4.5609  -4.4898
    -4.3826  -4.3249  -4.2786  -4.2220  -4.2044  -4.0922  -4.0663  -4.0154
    -3.9161  -3.8776  -3.8023  -3.7447  -3.7339  -3.5993  -3.5507  -3.5239
    -3.4602  -3.4002  -3.3745  -3.2222  -3.1789  -3.0882  -3.0343  -2.9688
    -2.9095  -2.8420  -2.7551  -2.7396  -2.6796  -2.6531  -2.5289  -2.4939
    -2.4750  -2.3658  -2.2896  -2.2356  -2.2123  -2.1282  -2.0951  -2.0542
    -2.0184  -1.9551  -1.9015  -1.8787  -1.8076  -1.7747  -1.7060  -1.6370
    -1.5071  -1.4564  -1.4275  -1.3544  -1.3350  -1.2582  -1.1987  -1.1866
    -1.0710  -1.0691  -1.0275  -0.9912  -0.9176  -0.9112  -0.8125  -0.7887
    -0.7476  -0.6349  -0.6049  -0.5377  -0.5117  -0.4641  -0.4029  -0.3497
    -0.2993  -0.2726  -0.2065  -0.1554   0.0735   0.1278   0.1695   0.2437
     1.4971   1.5150   2.2361   2.2846   2.3490   2.5172   2.6034

          k = 0.0202 0.0350 0.0000 ( 43807 PWs)   bands (ev):

   -91.3466 -91.3275 -91.3207 -91.3077 -91.2796 -91.2716 -83.6386 -83.6308
   -83.6194 -83.6117 -83.6066 -83.5997 -83.5815 -83.5766 -83.5688 -83.5508
   -83.5386 -83.5320 -54.8968 -54.8739 -54.8714 -54.8521 -54.8363 -54.8177
   -54.8065 -54.7883 -54.7854 -54.7828 -54.7683 -54.7646 -54.7598 -54.7542
   -54.7440 -54.7338 -54.7043 -54.7009 -49.5656 -49.5350 -49.5043 -49.4863
   -49.4777 -49.4511 -49.4293 -49.4224 -49.4111 -49.3998 -49.3723 -49.3611
   -49.3515 -49.3471 -49.3387 -49.3295 -49.3179 -49.3065 -49.2934 -49.2879
   -49.2766 -49.2676 -49.2573 -49.2524 -49.2382 -49.2205 -49.2013 -49.1953
   -49.1808 -49.1681 -49.1500 -49.1415 -49.1369 -49.1308 -49.1220 -49.1000
    -5.8272  -5.3224  -5.2095  -5.1364  -5.0803  -5.0270  -4.8964  -4.8827
    -4.8241  -4.7927  -4.7462  -4.7004  -4.6841  -4.5901  -4.5534  -4.4973
    -4.4120  -4.3685  -4.2402  -4.1946  -4.1409  -4.0840  -4.0422  -3.9988
    -3.9049  -3.8660  -3.7628  -3.6895  -3.6365  -3.5840  -3.5292  -3.4732
    -3.4216  -3.3785  -3.3306  -3.2136  -3.1510  -3.0827  -3.0274  -3.0005
    -2.9063  -2.8063  -2.7298  -2.6450  -2.5513  -2.5136  -2.4614  -2.4028
    -2.3548  -2.2806  -2.2571  -2.2052  -2.1858  -2.1393  -2.0839  -1.9837
    -1.9245  -1.8916  -1.8670  -1.8045  -1.7794  -1.7231  -1.6628  -1.5863
    -1.5455  -1.4438  -1.3995  -1.3435  -1.3100  -1.2579  -1.2093  -1.1322
    -1.0723  -1.0415  -1.0191  -0.9667  -0.9433  -0.8532  -0.8240  -0.7814
    -0.7300  -0.6799  -0.6082  -0.5673  -0.5302  -0.4921  -0.4611  -0.3965
    -0.3292  -0.2876  -0.2287  -0.2090  -0.1326   0.0248   0.2513   0.3913
     0.9323   1.0541   1.1217   1.2584   1.9890   2.3315   2.3788

          k = 0.0202-0.0816 0.0000 ( 43761 PWs)   bands (ev):

   -91.3466 -91.3275 -91.3207 -91.3077 -91.2796 -91.2716 -83.6375 -83.6321
   -83.6193 -83.6119 -83.6065 -83.5995 -83.5815 -83.5765 -83.5689 -83.5510
   -83.5383 -83.5321 -54.8969 -54.8741 -54.8715 -54.8522 -54.8363 -54.8176
   -54.8065 -54.7882 -54.7853 -54.7827 -54.7682 -54.7646 -54.7598 -54.7541
   -54.7440 -54.7337 -54.7043 -54.7009 -49.5731 -49.5412 -49.5063 -49.4915
   -49.4772 -49.4447 -49.4301 -49.4097 -49.3918 -49.3855 -49.3757 -49.3681
   -49.3487 -49.3382 -49.3329 -49.3301 -49.3170 -49.3094 -49.3039 -49.2952
   -49.2882 -49.2700 -49.2581 -49.2519 -49.2383 -49.2200 -49.2013 -49.1957
   -49.1803 -49.1681 -49.1481 -49.1413 -49.1385 -49.1311 -49.1210 -49.0996
    -5.5188  -5.3469  -5.1207  -5.0745  -5.0297  -4.9875  -4.9170  -4.8547
    -4.8047  -4.7801  -4.7722  -4.6913  -4.6678  -4.6039  -4.5295  -4.5132
    -4.4305  -4.3763  -4.2502  -4.1947  -4.1547  -4.0946  -4.0641  -4.0196
    -3.9344  -3.8708  -3.8041  -3.7376  -3.6840  -3.6120  -3.5408  -3.5003
    -3.4589  -3.3962  -3.3770  -3.2438  -3.1870  -3.1264  -3.0311  -2.9986
    -2.9005  -2.8767  -2.7708  -2.7260  -2.6331  -2.6016  -2.5109  -2.4718
    -2.4405  -2.3742  -2.3293  -2.2813  -2.2092  -2.1549  -2.1313  -2.0914
    -2.0293  -1.9593  -1.9109  -1.8392  -1.7981  -1.7274  -1.6808  -1.5982
    -1.5084  -1.4765  -1.3961  -1.3436  -1.2937  -1.2572  -1.2130  -1.1749
    -1.1435  -1.0824  -1.0426  -0.9971  -0.9725  -0.8685  -0.8341  -0.7695
    -0.7186  -0.6928  -0.6069  -0.5690  -0.5222  -0.4882  -0.4322  -0.3523
    -0.3320  -0.2353  -0.1873  -0.0241   0.0505   0.1063   0.3845   0.4790
     0.9188   1.3051   2.1660   2.3038   2.3319   2.5963   2.6724

          k = 0.0404-0.0700 0.0000 ( 43728 PWs)   bands (ev):

   -91.3466 -91.3275 -91.3207 -91.3077 -91.2796 -91.2716 -83.6360 -83.6338
   -83.6198 -83.6111 -83.6063 -83.5997 -83.5815 -83.5767 -83.5689 -83.5509
   -83.5384 -83.5321 -54.8970 -54.8742 -54.8715 -54.8521 -54.8363 -54.8177
   -54.8064 -54.7882 -54.7850 -54.7829 -54.7683 -54.7646 -54.7596 -54.7541
   -54.7440 -54.7337 -54.7043 -54.7009 -49.5782 -49.5352 -49.5103 -49.4944
   -49.4763 -49.4398 -49.4248 -49.4141 -49.3918 -49.3780 -49.3690 -49.3616
   -49.3539 -49.3469 -49.3417 -49.3301 -49.3199 -49.3087 -49.2994 -49.2929
   -49.2777 -49.2698 -49.2642 -49.2535 -49.2390 -49.2222 -49.2004 -49.1934
   -49.1811 -49.1685 -49.1479 -49.1408 -49.1392 -49.1314 -49.1208 -49.0997
    -5.2996  -5.2272  -5.2023  -5.1346  -5.0400  -4.9923  -4.9258  -4.8857
    -4.8333  -4.7790  -4.7738  -4.7430  -4.6580  -4.6067  -4.5164  -4.4879
    -4.4387  -4.3733  -4.2163  -4.1669  -4.1325  -4.0788  -4.0516  -4.0038
    -3.9747  -3.8858  -3.8466  -3.7389  -3.6676  -3.6205  -3.5398  -3.4957
    -3.4250  -3.4054  -3.3702  -3.3265  -3.2504  -3.1399  -3.0764  -2.9867
    -2.9327  -2.8772  -2.7995  -2.7289  -2.6697  -2.6221  -2.5621  -2.5059
    -2.4224  -2.3749  -2.3535  -2.3101  -2.2814  -2.2157  -2.1323  -2.0370
    -2.0090  -1.9567  -1.8977  -1.8625  -1.8149  -1.7415  -1.6731  -1.6320
    -1.5133  -1.4853  -1.4149  -1.3737  -1.3170  -1.2668  -1.2203  -1.2074
    -1.1434  -1.1074  -1.0642  -1.0307  -0.9462  -0.8809  -0.8013  -0.7282
    -0.6741  -0.6302  -0.5966  -0.5436  -0.5265  -0.4654  -0.4442  -0.3965
    -0.3204  -0.2885  -0.1338  -0.0230   0.0243   0.3356   0.3949   0.5531
     1.2897   1.3451   1.3763   3.0276   3.0841   3.2299   3.2704

          k =-0.0202 0.0117 0.0000 ( 43809 PWs)   bands (ev):

   -91.3466 -91.3275 -91.3207 -91.3077 -91.2796 -91.2716 -83.6395 -83.6301
   -83.6191 -83.6113 -83.6064 -83.6004 -83.5811 -83.5769 -83.5689 -83.5504
   -83.5391 -83.5319 -54.8965 -54.8738 -54.8712 -54.8518 -54.8362 -54.8178
   -54.8066 -54.7882 -54.7855 -54.7827 -54.7687 -54.7646 -54.7598 -54.7546
   -54.7440 -54.7338 -54.7043 -54.7009 -49.5510 -49.5111 -49.4928 -49.4876
   -49.4784 -49.4655 -49.4572 -49.4285 -49.4193 -49.4021 -49.3844 -49.3785
   -49.3609 -49.3510 -49.3372 -49.3234 -49.3120 -49.3052 -49.2925 -49.2742
   -49.2658 -49.2613 -49.2534 -49.2482 -49.2389 -49.2206 -49.2000 -49.1956
   -49.1823 -49.1673 -49.1503 -49.1411 -49.1366 -49.1315 -49.1220 -49.0999
    -6.0130  -5.3221  -5.2976  -5.2086  -5.1445  -5.0279  -4.9724  -4.8962
    -4.8657  -4.8303  -4.7542  -4.7103  -4.6363  -4.5749  -4.5237  -4.4979
    -4.4355  -4.3595  -4.3017  -4.1982  -4.1486  -4.0589  -4.0117  -3.9602
    -3.8779  -3.8059  -3.7480  -3.6910  -3.6072  -3.5628  -3.4940  -3.4407
    -3.3697  -3.3123  -3.2453  -3.1366  -3.0758  -3.0406  -2.9712  -2.8987
    -2.8629  -2.8050  -2.7025  -2.6170  -2.5491  -2.5267  -2.4349  -2.3486
    -2.3128  -2.2547  -2.1926  -2.1448  -2.1234  -2.0648  -2.0049  -1.9364
    -1.9153  -1.8339  -1.7951  -1.7614  -1.7324  -1.6629  -1.6001  -1.5624
    -1.4741  -1.4649  -1.4046  -1.2997  -1.2664  -1.2245  -1.1803  -1.1337
    -1.0903  -1.0075  -0.9777  -0.8948  -0.8481  -0.7921  -0.7435  -0.7218
    -0.7013  -0.6706  -0.6209  -0.5712  -0.5041  -0.4884  -0.4623  -0.4100
    -0.3752  -0.3639  -0.3135  -0.2663  -0.2181  -0.1879  -0.0802   0.1168
     0.2083   0.3179   1.1990   1.5664   1.6246   1.6987   2.4225

          k = 0.0202 0.0117 0.0000 ( 43809 PWs)   bands (ev):

   -91.3466 -91.3275 -91.3207 -91.3077 -91.2796 -91.2716 -83.6395 -83.6300
   -83.6193 -83.6114 -83.6065 -83.6002 -83.5813 -83.5768 -83.5688 -83.5505
   -83.5390 -83.5319 -54.8966 -54.8738 -54.8713 -54.8519 -54.8362 -54.8178
   -54.8066 -54.7883 -54.7855 -54.7828 -54.7685 -54.7646 -54.7598 -54.7545
   -54.7440 -54.7338 -54.7043 -54.7009 -49.5542 -49.5173 -49.4995 -49.4839
   -49.4779 -49.4641 -49.4494 -49.4246 -49.4166 -49.4098 -49.3809 -49.3676
   -49.3592 -49.3526 -49.3383 -49.3252 -49.3154 -49.3049 -49.2881 -49.2781
   -49.2649 -49.2634 -49.2553 -49.2513 -49.2383 -49.2208 -49.2008 -49.1950
   -49.1818 -49.1675 -49.1506 -49.1415 -49.1361 -49.1308 -49.1225 -49.0998
    -6.0111  -5.3137  -5.2827  -5.1978  -5.1750  -5.0185  -4.9762  -4.8992
    -4.8677  -4.8207  -4.7537  -4.7066  -4.6550  -4.5715  -4.5543  -4.5180
    -4.4036  -4.3643  -4.2602  -4.1952  -4.1532  -4.0647  -4.0197  -3.9589
    -3.8703  -3.8249  -3.7384  -3.6925  -3.6192  -3.5829  -3.4751  -3.4315
    -3.3639  -3.2849  -3.2455  -3.1859  -3.1248  -3.0465  -3.0041  -2.9386
    -2.9133  -2.7643  -2.7301  -2.5656  -2.5344  -2.4987  -2.4272  -2.3292
    -2.2958  -2.2776  -2.2241  -2.1819  -2.0800  -1.9805  -1.9534  -1.9117
    -1.8741  -1.8541  -1.8157  -1.7384  -1.6972  -1.6229  -1.6069  -1.5430
    -1.4658  -1.3864  -1.3716  -1.3383  -1.2755  -1.2296  -1.1582  -1.1188
    -1.0873  -1.0468  -1.0096  -0.9750  -0.9127  -0.8438  -0.7954  -0.7168
    -0.6790  -0.6626  -0.6205  -0.5791  -0.5511  -0.5193  -0.4794  -0.4135
    -0.3962  -0.3353  -0.3102  -0.2554  -0.2397  -0.2055  -0.0672   0.1602
     0.2462   0.3341   1.1898   1.5572   1.6486   1.6957   2.4050

          k =-0.0404 0.0233 0.0000 ( 43792 PWs)   bands (ev):

   -91.3466 -91.3275 -91.3207 -91.3077 -91.2796 -91.2716 -83.6379 -83.6322
   -83.6195 -83.6107 -83.6061 -83.6005 -83.5811 -83.5770 -83.5690 -83.5505
   -83.5388 -83.5320 -54.8967 -54.8740 -54.8713 -54.8518 -54.8362 -54.8178
   -54.8065 -54.7881 -54.7852 -54.7828 -54.7687 -54.7646 -54.7596 -54.7546
   -54.7441 -54.7338 -54.7043 -54.7009 -49.5687 -49.5147 -49.4982 -49.4853
   -49.4800 -49.4647 -49.4324 -49.4168 -49.4112 -49.4059 -49.3757 -49.3698
   -49.3586 -49.3466 -49.3363 -49.3269 -49.3156 -49.3103 -49.3007 -49.2794
   -49.2705 -49.2657 -49.2551 -49.2496 -49.2400 -49.2227 -49.1990 -49.1934
   -49.1829 -49.1677 -49.1488 -49.1416 -49.1379 -49.1325 -49.1210 -49.0999
    -5.7491  -5.3582  -5.1742  -5.1011  -5.0676  -5.0115  -4.9386  -4.9007
    -4.8378  -4.8011  -4.7211  -4.6911  -4.6303  -4.5588  -4.5239  -4.4618
    -4.3987  -4.3663  -4.3056  -4.2241  -4.1378  -4.1036  -4.0348  -3.9884
    -3.9033  -3.8547  -3.8123  -3.6892  -3.6202  -3.5593  -3.5293  -3.4756
    -3.4669  -3.4132  -3.2905  -3.1912  -3.1638  -3.0413  -3.0079  -2.9638
    -2.8548  -2.7712  -2.7483  -2.6880  -2.6440  -2.6077  -2.5592  -2.4664
    -2.4313  -2.3572  -2.3302  -2.2430  -2.1824  -2.1597  -2.1052  -1.9953
    -1.9777  -1.9252  -1.8957  -1.8535  -1.8072  -1.7703  -1.7375  -1.5600
    -1.5242  -1.4898  -1.4235  -1.3683  -1.3225  -1.2678  -1.2212  -1.1284
    -1.1033  -1.0391  -0.9876  -0.9335  -0.8934  -0.8473  -0.7625  -0.7289
    -0.6810  -0.6460  -0.5817  -0.5416  -0.4914  -0.4447  -0.4103  -0.3529
    -0.3142  -0.2905  -0.2582  -0.2170  -0.1501  -0.0600   0.1224   0.6475
     1.1650   1.2395   1.4950   1.5292   1.5749   2.1884   3.2535

          k = 0.0404 0.0233 0.0000 ( 43792 PWs)   bands (ev):

   -91.3466 -91.3275 -91.3207 -91.3077 -91.2796 -91.2716 -83.6379 -83.6317
   -83.6200 -83.6109 -83.6064 -83.5997 -83.5817 -83.5767 -83.5688 -83.5507
   -83.5387 -83.5319 -54.8968 -54.8740 -54.8715 -54.8521 -54.8363 -54.8177
   -54.8063 -54.7884 -54.7851 -54.7829 -54.7683 -54.7646 -54.7597 -54.7542
   -54.7441 -54.7338 -54.7043 -54.7010 -49.5735 -49.5301 -49.5126 -49.4905
   -49.4670 -49.4522 -49.4316 -49.4169 -49.4084 -49.3833 -49.3712 -49.3603
   -49.3547 -49.3450 -49.3385 -49.3298 -49.3201 -49.3081 -49.2960 -49.2858
   -49.2787 -49.2692 -49.2604 -49.2552 -49.2392 -49.2229 -49.2000 -49.1935
   -49.1812 -49.1685 -49.1501 -49.1423 -49.1364 -49.1300 -49.1225 -49.1001
    -5.7376  -5.3303  -5.1444  -5.1094  -5.0736  -5.0267  -4.9705  -4.8797
    -4.8128  -4.7848  -4.7292  -4.6994  -4.6560  -4.6011  -4.5451  -4.4882
    -4.4130  -4.3382  -4.2417  -4.1797  -4.1607  -4.1111  -4.0455  -4.0057
    -3.9049  -3.8724  -3.7680  -3.7058  -3.6517  -3.5823  -3.5224  -3.4719
    -3.4436  -3.4188  -3.3441  -3.2925  -3.1998  -3.0826  -3.0222  -2.9953
    -2.9441  -2.8534  -2.7827  -2.6269  -2.5832  -2.5450  -2.4641  -2.4236
    -2.3401  -2.3118  -2.2573  -2.2225  -2.1562  -2.1165  -2.0689  -1.9931
    -1.9711  -1.9148  -1.8631  -1.8306  -1.7400  -1.7063  -1.6414  -1.6191
    -1.5674  -1.4692  -1.3989  -1.3531  -1.3051  -1.2870  -1.2364  -1.1691
    -1.1166  -1.0548  -1.0354  -0.9645  -0.8975  -0.8510  -0.8214  -0.7544
    -0.7033  -0.6796  -0.6207  -0.5792  -0.5484  -0.4824  -0.4429  -0.4030
    -0.3433  -0.2987  -0.2411  -0.1821  -0.1393  -0.0257   0.1444   0.6402
     1.1847   1.2478   1.5121   1.5303   1.5759   2.1874   3.2261

          k = 0.0606-0.0350 0.0000 ( 43744 PWs)   bands (ev):

   -91.3466 -91.3275 -91.3207 -91.3077 -91.2796 -91.2716 -83.6362 -83.6340
   -83.6197 -83.6105 -83.6060 -83.6005 -83.5811 -83.5770 -83.5690 -83.5505
   -83.5387 -83.5320 -54.8968 -54.8742 -54.8713 -54.8518 -54.8362 -54.8178
   -54.8064 -54.7881 -54.7850 -54.7829 -54.7687 -54.7646 -54.7595 -54.7545
   -54.7441 -54.7337 -54.7043 -54.7010 -49.5746 -49.5166 -49.5021 -49.4829
   -49.4804 -49.4639 -49.4217 -49.4118 -49.4075 -49.3990 -49.3797 -49.3700
   -49.3536 -49.3419 -49.3314 -49.3283 -49.3182 -49.3153 -49.3021 -49.2870
   -49.2718 -49.2676 -49.2546 -49.2493 -49.2401 -49.2232 -49.1992 -49.1929
   -49.1831 -49.1684 -49.1475 -49.1416 -49.1393 -49.1330 -49.1207 -49.0995
    -5.4879  -5.3796  -5.2162  -5.0571  -5.0239  -4.9750  -4.9297  -4.8896
    -4.8399  -4.7801  -4.7235  -4.6838  -4.6598  -4.5687  -4.5156  -4.4492
    -4.3786  -4.3247  -4.2863  -4.2429  -4.1761  -4.1457  -4.0458  -4.0102
    -3.9131  -3.8733  -3.8043  -3.7204  -3.6285  -3.5875  -3.5667  -3.5046
    -3.4910  -3.4150  -3.3096  -3.2021  -3.1509  -3.0973  -3.0451  -2.9853
    -2.9440  -2.8075  -2.7731  -2.7252  -2.6915  -2.6037  -2.5801  -2.5417
    -2.4844  -2.4532  -2.3541  -2.2976  -2.2000  -2.1518  -2.1167  -2.0436
    -2.0083  -1.9713  -1.9205  -1.8749  -1.8257  -1.7524  -1.6695  -1.6364
    -1.5583  -1.4747  -1.4106  -1.3663  -1.3204  -1.2989  -1.2750  -1.1431
    -1.1364  -1.0738  -1.0274  -0.9175  -0.9109  -0.8475  -0.7649  -0.7142
    -0.6825  -0.6434  -0.5840  -0.5316  -0.4761  -0.4335  -0.4029  -0.3684
    -0.3050  -0.2482  -0.2164  -0.1735  -0.0071   0.1525   0.2010   0.2290
     1.4751   1.5339   2.1945   2.3328   2.3742   2.5240   2.5397

          k =-0.0606-0.0350 0.0000 ( 43744 PWs)   bands (ev):

   -91.3466 -91.3275 -91.3207 -91.3077 -91.2796 -91.2716 -83.6364 -83.6332
   -83.6203 -83.6107 -83.6064 -83.5994 -83.5818 -83.5767 -83.5689 -83.5508
   -83.5385 -83.5319 -54.8970 -54.8741 -54.8715 -54.8522 -54.8363 -54.8177
   -54.8062 -54.7884 -54.7849 -54.7830 -54.7682 -54.7646 -54.7596 -54.7540
   -54.7441 -54.7338 -54.7043 -54.7010 -49.5800 -49.5346 -49.5180 -49.4930
   -49.4651 -49.4474 -49.4332 -49.3983 -49.3860 -49.3814 -49.3740 -49.3702
   -49.3454 -49.3426 -49.3346 -49.3261 -49.3132 -49.3117 -49.3056 -49.2930
   -49.2873 -49.2755 -49.2618 -49.2543 -49.2395 -49.2233 -49.2001 -49.1931
   -49.1807 -49.1695 -49.1496 -49.1425 -49.1369 -49.1300 -49.1228 -49.0997
    -5.4437  -5.3126  -5.2665  -5.0936  -5.0472  -4.9740  -4.8932  -4.8379
    -4.8142  -4.7850  -4.7705  -4.7124  -4.6585  -4.5619  -4.5391  -4.4934
    -4.4317  -4.3171  -4.2340  -4.2175  -4.1956  -4.1165  -4.0693  -3.9851
    -3.9465  -3.8567  -3.8104  -3.6845  -3.6644  -3.6071  -3.5912  -3.5012
    -3.4864  -3.4708  -3.4053  -3.3359  -3.1763  -3.0820  -3.0324  -2.9977
    -2.9419  -2.9167  -2.7687  -2.7359  -2.6944  -2.5508  -2.5112  -2.4925
    -2.3842  -2.3199  -2.3017  -2.2297  -2.1537  -2.1186  -2.0760  -2.0001
    -1.9720  -1.9223  -1.8974  -1.8490  -1.7660  -1.7348  -1.6850  -1.6155
    -1.5680  -1.5056  -1.4835  -1.3695  -1.2852  -1.2468  -1.2244  -1.1988
    -1.1493  -1.0904  -1.0245  -0.9509  -0.9311  -0.8765  -0.8555  -0.7335
    -0.7007  -0.6739  -0.6344  -0.5695  -0.5443  -0.4748  -0.4248  -0.3977
    -0.3695  -0.3008  -0.2124  -0.0917   0.0347   0.1656   0.2166   0.2230
     1.4821   1.5378   2.1921   2.2767   2.3806   2.5330   2.6077

          k =-0.0202 0.0350 0.0000 ( 43807 PWs)   bands (ev):

   -91.3466 -91.3275 -91.3207 -91.3077 -91.2796 -91.2716 -83.6387 -83.6311
   -83.6190 -83.6116 -83.6064 -83.6002 -83.5811 -83.5768 -83.5689 -83.5507
   -83.5387 -83.5321 -54.8967 -54.8739 -54.8713 -54.8519 -54.8362 -54.8178
   -54.8066 -54.7881 -54.7854 -54.7827 -54.7686 -54.7646 -54.7598 -54.7545
   -54.7441 -54.7338 -54.7043 -54.7009 -49.5619 -49.5259 -49.4918 -49.4907
   -49.4754 -49.4555 -49.4471 -49.4331 -49.4057 -49.3847 -49.3803 -49.3772
   -49.3582 -49.3495 -49.3373 -49.3291 -49.3149 -49.3063 -49.2984 -49.2795
   -49.2705 -49.2626 -49.2560 -49.2501 -49.2390 -49.2205 -49.2001 -49.1957
   -49.1818 -49.1676 -49.1490 -49.1414 -49.1378 -49.1323 -49.1211 -49.0998
    -5.8328  -5.3163  -5.2420  -5.1679  -5.0434  -5.0024  -4.9570  -4.8669
    -4.8286  -4.8119  -4.7466  -4.7006  -4.6563  -4.5785  -4.4986  -4.4606
    -4.4257  -4.3528  -4.3032  -4.2054  -4.1194  -4.0627  -4.0452  -3.9988
    -3.8938  -3.8834  -3.7648  -3.7303  -3.5971  -3.5582  -3.5187  -3.4809
    -3.4410  -3.3383  -3.2964  -3.2291  -3.1790  -3.0366  -2.9872  -2.9152
    -2.8818  -2.8006  -2.7925  -2.6554  -2.6205  -2.5713  -2.4496  -2.4053
    -2.3712  -2.3011  -2.2416  -2.2176  -2.1850  -2.1485  -2.1261  -2.0237
    -1.9661  -1.9184  -1.8961  -1.8391  -1.7929  -1.7107  -1.6412  -1.5854
    -1.5559  -1.4457  -1.4245  -1.3590  -1.3059  -1.2591  -1.2089  -1.1571
    -1.1219  -1.0501  -0.9892  -0.9764  -0.9142  -0.8527  -0.7932  -0.7383
    -0.6907  -0.6743  -0.5811  -0.5250  -0.5090  -0.4534  -0.3993  -0.3762
    -0.3090  -0.2716  -0.2239  -0.1865  -0.1427  -0.0660   0.2856   0.3522
     0.9621   1.0222   1.1504   1.2152   1.9996   2.3314   2.3612

          k = 0.0404 0.0000 0.0000 ( 43807 PWs)   bands (ev):

   -91.3466 -91.3275 -91.3207 -91.3077 -91.2796 -91.2716 -83.6382 -83.6315
   -83.6198 -83.6107 -83.6063 -83.6002 -83.5814 -83.5769 -83.5689 -83.5505
   -83.5389 -83.5319 -54.8967 -54.8740 -54.8714 -54.8519 -54.8362 -54.8178
   -54.8064 -54.7882 -54.7852 -54.7829 -54.7686 -54.7646 -54.7597 -54.7544
   -54.7441 -54.7338 -54.7043 -54.7009 -49.5687 -49.5168 -49.5064 -49.4885
   -49.4771 -49.4525 -49.4393 -49.4234 -49.4096 -49.3977 -49.3775 -49.3677
   -49.3568 -49.3465 -49.3383 -49.3267 -49.3189 -49.3076 -49.2949 -49.2789
   -49.2730 -49.2641 -49.2561 -49.2543 -49.2393 -49.2227 -49.1993 -49.1937
   -49.1823 -49.1680 -49.1498 -49.1422 -49.1370 -49.1309 -49.1217 -49.0998
    -5.8274  -5.3072  -5.2103  -5.1683  -5.0627  -5.0051  -4.9653  -4.8876
    -4.8561  -4.7857  -4.7387  -4.7070  -4.6551  -4.5691  -4.5388  -4.4805
    -4.4195  -4.3500  -4.2619  -4.2009  -4.1295  -4.0934  -4.0167  -3.9994
    -3.9101  -3.8349  -3.7975  -3.6738  -3.6164  -3.5850  -3.4893  -3.4731
    -3.4470  -3.3842  -3.2705  -3.2444  -3.1651  -3.0612  -3.0296  -2.9827
    -2.8862  -2.8211  -2.7801  -2.6609  -2.6027  -2.5386  -2.4602  -2.4373
    -2.3255  -2.3004  -2.2597  -2.1931  -2.1573  -2.0838  -2.0500  -1.9881
    -1.9832  -1.9357  -1.8620  -1.7986  -1.7620  -1.7304  -1.6957  -1.5901
    -1.5420  -1.4944  -1.4254  -1.3630  -1.3194  -1.2655  -1.2070  -1.1381
    -1.0957  -1.0490  -0.9969  -0.9544  -0.9084  -0.8620  -0.8152  -0.7399
    -0.7193  -0.6451  -0.5705  -0.5533  -0.5246  -0.4500  -0.4113  -0.3830
    -0.3521  -0.2961  -0.2456  -0.2306  -0.1488   0.0076   0.2967   0.3591
     0.8958   1.0464   1.0918   1.3199   2.0010   2.3283   2.3670

          k =-0.0202-0.0816 0.0000 ( 43761 PWs)   bands (ev):

   -91.3466 -91.3275 -91.3207 -91.3077 -91.2796 -91.2716 -83.6375 -83.6322
   -83.6191 -83.6119 -83.6064 -83.5998 -83.5813 -83.5766 -83.5689 -83.5510
   -83.5383 -83.5322 -54.8969 -54.8741 -54.8714 -54.8521 -54.8363 -54.8177
   -54.8066 -54.7881 -54.7853 -54.7827 -54.7683 -54.7646 -54.7598 -54.7542
   -54.7440 -54.7337 -54.7043 -54.7009 -49.5718 -49.5375 -49.5014 -49.4935
   -49.4749 -49.4481 -49.4326 -49.4203 -49.3945 -49.3783 -49.3728 -49.3603
   -49.3545 -49.3471 -49.3390 -49.3350 -49.3206 -49.3072 -49.2986 -49.2938
   -49.2766 -49.2700 -49.2585 -49.2512 -49.2386 -49.2200 -49.2007 -49.1959
   -49.1807 -49.1679 -49.1473 -49.1418 -49.1387 -49.1318 -49.1206 -49.0996
    -5.5254  -5.3404  -5.1508  -5.0641  -5.0273  -4.9893  -4.9185  -4.8733
    -4.8263  -4.7822  -4.7595  -4.7191  -4.6433  -4.5945  -4.5182  -4.4707
    -4.4180  -4.3345  -4.2609  -4.2253  -4.1410  -4.0947  -4.0420  -4.0159
    -3.9459  -3.8845  -3.8192  -3.7626  -3.6713  -3.6107  -3.5300  -3.4947
    -3.4306  -3.3998  -3.3518  -3.2941  -3.2168  -3.0832  -3.0077  -2.9848
    -2.9219  -2.8535  -2.7951  -2.7381  -2.6754  -2.6106  -2.5480  -2.4476
    -2.4310  -2.3434  -2.3208  -2.2956  -2.2379  -2.1722  -2.1310  -2.0530
    -2.0325  -1.9582  -1.8917  -1.8794  -1.8124  -1.6964  -1.6720  -1.6050
    -1.5405  -1.4891  -1.4079  -1.3770  -1.3026  -1.2915  -1.2156  -1.1615
    -1.1264  -1.0992  -1.0460  -0.9870  -0.9599  -0.8948  -0.8350  -0.7627
    -0.7018  -0.6585  -0.5988  -0.5565  -0.5142  -0.4495  -0.4177  -0.3588
    -0.2790  -0.2342  -0.1856  -0.0381   0.0384   0.0860   0.3751   0.4781
     0.9166   1.3101   2.2321   2.3071   2.3425   2.5211   2.6724

          k = 0.0808-0.0233 0.0000 ( 43761 PWs)   bands (ev):

   -91.3466 -91.3275 -91.3207 -91.3077 -91.2796 -91.2716 -83.6368 -83.6332
   -83.6195 -83.6109 -83.6061 -83.6002 -83.5812 -83.5768 -83.5690 -83.5507
   -83.5386 -83.5321 -54.8969 -54.8741 -54.8714 -54.8519 -54.8362 -54.8178
   -54.8065 -54.7881 -54.7851 -54.7828 -54.7686 -54.7646 -54.7596 -54.7544
   -54.7440 -54.7337 -54.7043 -54.7009 -49.5739 -49.5253 -49.5023 -49.4898
   -49.4777 -49.4506 -49.4354 -49.4170 -49.3976 -49.3882 -49.3743 -49.3676
   -49.3578 -49.3421 -49.3402 -49.3312 -49.3225 -49.3096 -49.3003 -49.2846
   -49.2708 -49.2683 -49.2579 -49.2516 -49.2396 -49.2223 -49.1995 -49.1934
   -49.1820 -49.1681 -49.1474 -49.1411 -49.1389 -49.1326 -49.1205 -49.0995
    -5.5257  -5.3223  -5.1636  -5.1116  -5.0155  -4.9741  -4.9255  -4.9076
    -4.8521  -4.7779  -4.7247  -4.6895  -4.6415  -4.5984  -4.5023  -4.4674
    -4.4110  -4.3375  -4.2643  -4.2299  -4.1466  -4.1066  -4.0570  -4.0017
    -3.9273  -3.8848  -3.8373  -3.7384  -3.6197  -3.5987  -3.5267  -3.4906
    -3.4431  -3.4136  -3.3132  -3.2827  -3.2192  -3.0699  -3.0296  -2.9820
    -2.9047  -2.8657  -2.7919  -2.7247  -2.6936  -2.6295  -2.5619  -2.5089
    -2.4554  -2.4174  -2.3511  -2.2728  -2.1987  -2.1734  -2.1311  -2.0444
    -2.0053  -1.9445  -1.9210  -1.8506  -1.7853  -1.7559  -1.6910  -1.6373
    -1.5181  -1.4573  -1.4343  -1.4082  -1.3155  -1.2864  -1.2365  -1.1665
    -1.1397  -1.1160  -1.0703  -0.9768  -0.9242  -0.8492  -0.7929  -0.7438
    -0.6669  -0.6378  -0.5744  -0.5129  -0.4963  -0.4755  -0.4024  -0.3799
    -0.3219  -0.2229  -0.1917  -0.0699   0.0319   0.0978   0.3927   0.4821
     0.9095   1.3030   2.2373   2.3074   2.3340   2.5282   2.6721

          k =-0.0606-0.0583 0.0000 ( 43761 PWs)   bands (ev):

   -91.3466 -91.3275 -91.3207 -91.3077 -91.2796 -91.2716 -83.6364 -83.6334
   -83.6202 -83.6107 -83.6063 -83.5997 -83.5817 -83.5767 -83.5689 -83.5507
   -83.5386 -83.5320 -54.8969 -54.8741 -54.8715 -54.8521 -54.8363 -54.8177
   -54.8063 -54.7883 -54.7850 -54.7830 -54.7683 -54.7646 -54.7596 -54.7541
   -54.7441 -54.7337 -54.7043 -54.7009 -49.5789 -49.5311 -49.5152 -49.4933
   -49.4723 -49.4397 -49.4317 -49.4132 -49.3873 -49.3834 -49.3774 -49.3601
   -49.3527 -49.3477 -49.3373 -49.3243 -49.3222 -49.3097 -49.3001 -49.2889
   -49.2816 -49.2722 -49.2626 -49.2540 -49.2396 -49.2233 -49.1996 -49.1927
   -49.1811 -49.1688 -49.1489 -49.1420 -49.1373 -49.1304 -49.1218 -49.0995
    -5.5004  -5.3017  -5.1496  -5.1033  -5.0320  -5.0007  -4.9203  -4.8913
    -4.8287  -4.7687  -4.7453  -4.7339  -4.6554  -4.6246  -4.5250  -4.4790
    -4.4227  -4.3465  -4.2422  -4.1733  -4.1486  -4.0921  -4.0535  -3.9947
    -3.9435  -3.8825  -3.8330  -3.6854  -3.6407  -3.6194  -3.5553  -3.4825
    -3.4737  -3.4381  -3.3639  -3.3248  -3.2469  -3.1329  -3.0705  -2.9821
    -2.9481  -2.8623  -2.7790  -2.7086  -2.6382  -2.6086  -2.5177  -2.4411
    -2.3712  -2.3401  -2.2988  -2.2507  -2.2208  -2.1436  -2.1113  -2.0534
    -1.9957  -1.9485  -1.9023  -1.8438  -1.8079  -1.7383  -1.6647  -1.6109
    -1.5361  -1.5047  -1.4461  -1.3840  -1.3458  -1.2641  -1.2192  -1.1492
    -1.1213  -1.0911  -1.0364  -0.9899  -0.9349  -0.8890  -0.8125  -0.7612
    -0.7007  -0.6459  -0.6011  -0.5639  -0.5132  -0.4847  -0.4252  -0.4143
    -0.3779  -0.2733  -0.1974  -0.0173   0.0616   0.1382   0.3691   0.4559
     0.9310   1.3164   2.1646   2.3043   2.3653   2.5672   2.6699

          k = 0.0808 0.0233 0.0000 ( 43761 PWs)   bands (ev):

   -91.3466 -91.3275 -91.3207 -91.3077 -91.2796 -91.2716 -83.6368 -83.6327
   -83.6200 -83.6111 -83.6064 -83.5995 -83.5817 -83.5766 -83.5689 -83.5509
   -83.5384 -83.5320 -54.8969 -54.8741 -54.8715 -54.8522 -54.8363 -54.8177
   -54.8063 -54.7883 -54.7851 -54.7829 -54.7682 -54.7646 -54.7597 -54.7540
   -54.7440 -54.7337 -54.7043 -54.7009 -49.5780 -49.5372 -49.5146 -49.4930
   -49.4734 -49.4400 -49.4262 -49.4137 -49.3878 -49.3813 -49.3752 -49.3650
   -49.3520 -49.3411 -49.3331 -49.3276 -49.3145 -49.3116 -49.3042 -49.2926
   -49.2877 -49.2712 -49.2623 -49.2543 -49.2390 -49.2223 -49.2005 -49.1934
   -49.1805 -49.1689 -49.1490 -49.1418 -49.1372 -49.1303 -49.1218 -49.0995
    -5.5017  -5.3053  -5.1429  -5.1104  -5.0472  -4.9842  -4.9278  -4.8497
    -4.8126  -4.7887  -4.7393  -4.7059  -4.6627  -4.6056  -4.5444  -4.4897
    -4.4408  -4.3730  -4.2310  -4.2070  -4.1551  -4.1006  -4.0690  -4.0077
    -3.9348  -3.8620  -3.8114  -3.7156  -3.6612  -3.6070  -3.5402  -3.5049
    -3.4600  -3.4079  -3.3768  -3.3349  -3.2117  -3.0912  -3.0589  -3.0099
    -2.9635  -2.9109  -2.7643  -2.6788  -2.6067  -2.5689  -2.5094  -2.4707
    -2.4093  -2.3579  -2.3275  -2.2397  -2.1964  -2.1649  -2.1235  -2.0698
    -1.9738  -1.9607  -1.8949  -1.8288  -1.7782  -1.7284  -1.6694  -1.6403
    -1.5443  -1.4663  -1.4201  -1.3759  -1.3043  -1.2755  -1.1948  -1.1559
    -1.1371  -1.0742  -1.0504  -0.9875  -0.9613  -0.8739  -0.8309  -0.7519
    -0.7302  -0.6637  -0.5964  -0.5565  -0.5281  -0.5125  -0.4647  -0.4123
    -0.3881  -0.2691  -0.1581  -0.0156   0.0574   0.1439   0.3670   0.4696
     0.9246   1.3143   2.1685   2.3000   2.3427   2.5921   2.6753

          k =-0.0606 0.0583 0.0000 ( 43761 PWs)   bands (ev):

   -91.3466 -91.3275 -91.3207 -91.3077 -91.2796 -91.2716 -83.6363 -83.6338
   -83.6198 -83.6106 -83.6061 -83.6002 -83.5813 -83.5769 -83.5690 -83.5506
   -83.5386 -83.5320 -54.8969 -54.8742 -54.8714 -54.8519 -54.8362 -54.8178
   -54.8064 -54.7881 -54.7850 -54.7829 -54.7686 -54.7646 -54.7596 -54.7544
   -54.7441 -54.7337 -54.7043 -54.7009 -49.5762 -49.5224 -49.5077 -49.4893
   -49.4782 -49.4504 -49.4298 -49.4115 -49.3998 -49.3872 -49.3819 -49.3703
   -49.3571 -49.3406 -49.3334 -49.3281 -49.3214 -49.3116 -49.3015 -49.2855
   -49.2763 -49.2668 -49.2573 -49.2527 -49.2398 -49.2232 -49.1991 -49.1926
   -49.1822 -49.1683 -49.1480 -49.1410 -49.1386 -49.1320 -49.1209 -49.0994
    -5.5182  -5.3259  -5.1505  -5.0980  -5.0077  -4.9818  -4.9381  -4.8994
    -4.8589  -4.7773  -4.7367  -4.7032  -4.6604  -4.5896  -4.5203  -4.4711
    -4.4110  -4.3589  -4.2608  -4.1892  -4.1446  -4.1089  -4.0360  -4.0033
    -3.9314  -3.8755  -3.8333  -3.7018  -3.6330  -3.5887  -3.5692  -3.4910
    -3.4595  -3.4186  -3.3133  -3.2924  -3.1876  -3.1056  -3.0757  -2.9970
    -2.8798  -2.8394  -2.7929  -2.7271  -2.6611  -2.6260  -2.5843  -2.5067
    -2.4602  -2.3895  -2.3191  -2.2844  -2.2073  -2.1648  -2.0923  -2.0593
    -1.9916  -1.9631  -1.9258  -1.8637  -1.8081  -1.7440  -1.6961  -1.6128
    -1.4992  -1.4661  -1.4317  -1.3773  -1.3475  -1.2970  -1.2651  -1.1932
    -1.1170  -1.1025  -1.0289  -0.9948  -0.9054  -0.8320  -0.8143  -0.7250
    -0.6889  -0.6258  -0.5754  -0.5281  -0.4819  -0.4703  -0.4285  -0.3839
    -0.3354  -0.2641  -0.1977  -0.0758   0.0545   0.1134   0.4023   0.4690
     0.9191   1.2984   2.1637   2.3090   2.3591   2.5656   2.6700

     the Fermi energy is     0.0041 ev

!    total energy              =   -7917.30470647 Ry
     Harris-Foulkes estimate   =   -7917.30470552 Ry
     estimated scf accuracy    <       0.00000005 Ry

     The total energy is the sum of the following terms:

     one-electron contribution =  -31917.95216877 Ry
     hartree contribution      =   15955.17046532 Ry
     xc contribution           =    -543.81982390 Ry
     ewald contribution        =   11652.03050679 Ry
     one-center paw contrib.   =   -3062.68873249 Ry
     smearing contrib. (-TS)   =      -0.04495342 Ry

     convergence has been achieved in  69 iterations

     Forces acting on atoms (Ry/au):


     negative rho (up, down):  2.246E-02 0.000E+00
     atom    1 type  1   force =     0.00832661    0.00445604   -0.03234483
     atom    2 type  2   force =    -0.00512431    0.01151757   -0.01562832
     atom    3 type  1   force =    -0.00537993    0.00848606   -0.03008894
     atom    4 type  2   force =     0.00361185   -0.00775565   -0.01149927
     atom    5 type  2   force =    -0.00260847   -0.00199886   -0.01490087
     atom    6 type  2   force =    -0.00123195    0.00562036   -0.01207673
     atom    7 type  1   force =     0.00488566   -0.00870164   -0.03046662
     atom    8 type  2   force =    -0.00104576   -0.00444264   -0.01656296
     atom    9 type  1   force =    -0.00535979   -0.00591919   -0.03387847
     atom   10 type  2   force =    -0.00742561    0.00488317    0.01739470
     atom   11 type  1   force =     0.00060529    0.00561050    0.03652634
     atom   12 type  2   force =     0.00856034    0.00061607    0.02529429
     atom   13 type  2   force =    -0.00063034    0.00884854    0.01706350
     atom   14 type  2   force =    -0.00324951    0.00143298    0.01522273
     atom   15 type  2   force =     0.00397663   -0.00332600    0.01936647
     atom   16 type  2   force =    -0.00908095   -0.00405431    0.01687724
     atom   17 type  1   force =    -0.00220897   -0.00410326    0.03370729
     atom   18 type  2   force =     0.01337921   -0.01116975    0.01599446

     Total force =     0.106184     Total SCF correction =     0.000735
 !ASE

     Writing output data file calc.save
     Check: negative starting charge=   -0.018621
     NEW-OLD atomic charge density approx. for the potential

     Check: negative/imaginary core charge=   -0.000001    0.000000
     Check: negative starting charge=   -0.018448

     negative rho (up, down):  2.084E-02 0.000E+00

     total cpu time spent up to now is     7090.8 secs

     per-process dynamical memory:   102.3 Mb

     Self-consistent Calculation

     iteration #  1     ecut=    44.10 Ry     beta=0.05
     CG style diagonalization
     c_bands:  2 eigenvalues not converged
