  python dir          : /gpfs/pace1/project/chbe-medford/medford-share/gits/frozen/ben_espresso_8_24_2017/espresso
  espresso dir        : /nv/hp22/amedford6/medford-shared/builds/espresso/5.1.r11289-pybeef/intel-16.0+mvapich2-2.2+mkl-11.3/espresso-5.1.r11289-pybeef/bin
  pseudo dir          : /gpfs/pace1/project/chbe-medford/medford-share/data/pseudos/SSSP_eff_PBE
  ase-espresso py git : GITVERSION



     Program PWSCF v.5.1rc2 starts on 25Nov2017 at 23: 6:37 

     This program is part of the open-source Quantum ESPRESSO suite
     for quantum simulation of materials; please cite
         "P. Giannozzi et al., J. Phys.:Condens. Matter 21 395502 (2009);
          URL http://www.quantum-espresso.org", 
     in publications or presentations arising from this work. More details at
     http://www.quantum-espresso.org/quote

     Parallel version (MPI), running on    49 processors
     R & G space division:  proc/nbgrp/npool/nimage =      49
     Reading input from pw.inp
     Message from routine read_cards :
     DEPRECATED: no units specified in CELL_PARAMETERS card

     Current dimensions of program PWSCF are:
     Max number of different atomic species (ntypx) = 10
     Max number of k-points (npk) =  40000
     Max angular momentum in pseudopotentials (lmaxx) =  3

     IMPORTANT: XC functional enforced from input :
     Exchange-correlation      = PBE ( 1  4  3  4 0)
     Any further DFT definition will be discarded
     Please, verify this is what you really want

               file Pd.UPF: wavefunction(s)  4S 5S 4D renormalized

     Subspace diagonalization in iterative solution of the eigenvalue problem:
     a serial algorithm will be used

 
     Parallelization info
     --------------------
     sticks:   dense  smooth     PW     G-vecs:    dense   smooth      PW
     Min         113      60     16                18343     7118    1006
     Max         114      61     17                18356     7174    1015
     Sum        5551    2941    805               899157   350049   49521
 


     bravais-lattice index     =            0
     lattice parameter (alat)  =       1.8897  a.u.
     unit-cell volume          =    8852.9658 (a.u.)^3
     number of atoms/cell      =           20
     number of atomic types    =            3
     number of electrons       =       314.00
     number of Kohn-Sham states=          167
     kinetic-energy cutoff     =      44.0992  Ry
     charge density cutoff     =     330.7439  Ry
     convergence threshold     =      7.3E-08
     mixing beta               =       0.0500
     number of iterations used =            8  local-TF  mixing
     Exchange-correlation      = PBE ( 1  4  3  4 0)
     nstep                     =           50


     celldm(1)=   1.889726  celldm(2)=   0.000000  celldm(3)=   0.000000
     celldm(4)=   0.000000  celldm(5)=   0.000000  celldm(6)=   0.000000

     crystal axes: (cart. coord. in units of alat)
               a(1) = (   8.251936   0.000000   0.000000 )  
               a(2) = (   4.125968   7.146386   0.000000 )  
               a(3) = (   0.000000   0.000000  22.245893 )  

     reciprocal axes: (cart. coord. in units 2 pi/alat)
               b(1) = (  0.121184 -0.069965  0.000000 )  
               b(2) = (  0.000000  0.139931  0.000000 )  
               b(3) = (  0.000000  0.000000  0.044952 )  


     PseudoPot. # 1 for Pt read from file:
     /gpfs/pace1/project/chbe-medford/medford-share/data/pseudos/SSSP_eff_PBE/Pt.UPF
     MD5 check sum: f09d6de1a584b5a045c4fc126da2d0c4
     Pseudo is Ultrasoft + core correction, Zval = 16.0
     Generated by new atomic code, or converted to UPF format
     Using radial grid of  985 points,  6 beta functions with: 
                l(1) =   0
                l(2) =   0
                l(3) =   1
                l(4) =   1
                l(5) =   2
                l(6) =   2
     Q(r) pseudized with  8 coefficients,  rinner =    1.300   1.300   1.300
                                                       1.300   1.300

     PseudoPot. # 2 for Pd read from file:
     /gpfs/pace1/project/chbe-medford/medford-share/data/pseudos/SSSP_eff_PBE/Pd.UPF
     MD5 check sum: ea89d3e00be872097c4300495f51d8eb
     Pseudo is Projector augmented-wave + core cor, Zval = 18.0
     Generated using "atomic" code by A. Dal Corso  v.5.1
     Shape of augmentation charge: PSQ
     Using radial grid of 1235 points,  6 beta functions with: 
                l(1) =   0
                l(2) =   0
                l(3) =   1
                l(4) =   1
                l(5) =   2
                l(6) =   2
     Q(r) pseudized with 0 coefficients 


     PseudoPot. # 3 for  H read from file:
     /gpfs/pace1/project/chbe-medford/medford-share/data/pseudos/SSSP_eff_PBE/H.UPF
     MD5 check sum: 36633979392af7100e6f6632747262d3
     Pseudo is Ultrasoft, Zval =  1.0
     Generated using "atomic" code by A. Dal Corso  v.5.0.99 svn rev. 10869
     Using radial grid of  929 points,  2 beta functions with: 
                l(1) =   0
                l(2) =   0
     Q(r) pseudized with 0 coefficients 


     atomic species   valence    mass     pseudopotential
        Pt1           16.00   195.08400     Pt( 1.00)
        Pd1           18.00   106.42000     Pd( 1.00)
        H1             1.00     1.00800      H( 1.00)

     No symmetry found



   Cartesian axes

     site n.     atom                  positions (alat units)
         1           Pt1 tau(   1) = (   8.2519361   1.5880858  10.0000000  )
         2           Pd1 tau(   2) = (   2.7506454   1.5880858  10.0000000  )
         3           Pt1 tau(   3) = (   5.5012908   1.5880858  10.0000000  )
         4           Pd1 tau(   4) = (   9.6272588   3.9702146  10.0000000  )
         5           Pd1 tau(   5) = (   4.1259681   3.9702146  10.0000000  )
         6           Pd1 tau(   6) = (   6.8766134   3.9702146  10.0000000  )
         7           Pt1 tau(   7) = (  11.0025815   6.3523434  10.0000000  )
         8           Pd1 tau(   8) = (   5.5012908   6.3523434  10.0000000  )
         9           Pt1 tau(   9) = (   8.2519361   6.3523434  10.0000000  )
        10           Pd1 tau(  10) = (   0.0000000   0.0000000  12.2458925  )
        11           Pt1 tau(  11) = (   2.7506454   0.0000000  12.2458925  )
        12           Pd1 tau(  12) = (   5.5012908   0.0000000  12.2458925  )
        13           Pd1 tau(  13) = (   1.3753227   2.3821288  12.2458925  )
        14           Pd1 tau(  14) = (   4.1259681   2.3821288  12.2458925  )
        15           Pd1 tau(  15) = (   6.8766134   2.3821288  12.2458925  )
        16           Pd1 tau(  16) = (   2.7506454   4.7642575  12.2458925  )
        17           Pt1 tau(  17) = (   5.5012908   4.7642575  12.2458925  )
        18           Pd1 tau(  18) = (   8.2519361   4.7642575  12.2458925  )
        19           H1  tau(  19) = (   5.5012908   3.1761717  12.7458925  )
        20           H1  tau(  20) = (   5.5012908   3.1761717  13.2958925  )

     number of k points=    20  Fermi-Dirac smearing, width (Ry)=  0.0073
                       cart. coord. in units 2pi/alat
        k(    1) = (   0.0000000   0.0000000   0.0000000), wk =   0.0555556
        k(    2) = (   0.0000000   0.0233218   0.0000000), wk =   0.1111111
        k(    3) = (   0.0000000   0.0466436   0.0000000), wk =   0.1111111
        k(    4) = (   0.0000000  -0.0699654   0.0000000), wk =   0.0555556
        k(    5) = (   0.0201973   0.0349827   0.0000000), wk =   0.1111111
        k(    6) = (   0.0201973  -0.0816263   0.0000000), wk =   0.1111111
        k(    7) = (   0.0403946  -0.0699654   0.0000000), wk =   0.1111111
        k(    8) = (  -0.0201973   0.0116609   0.0000000), wk =   0.1111111
        k(    9) = (   0.0201973   0.0116609   0.0000000), wk =   0.1111111
        k(   10) = (  -0.0403946   0.0233218   0.0000000), wk =   0.1111111
        k(   11) = (   0.0403946   0.0233218   0.0000000), wk =   0.1111111
        k(   12) = (   0.0605918  -0.0349827   0.0000000), wk =   0.0555556
        k(   13) = (  -0.0605918  -0.0349827   0.0000000), wk =   0.0555556
        k(   14) = (  -0.0201973   0.0349827   0.0000000), wk =   0.1111111
        k(   15) = (   0.0403946   0.0000000   0.0000000), wk =   0.1111111
        k(   16) = (  -0.0201973  -0.0816263   0.0000000), wk =   0.1111111
        k(   17) = (   0.0807891  -0.0233218   0.0000000), wk =   0.1111111
        k(   18) = (  -0.0605918  -0.0583045   0.0000000), wk =   0.1111111
        k(   19) = (   0.0807891   0.0233218   0.0000000), wk =   0.1111111
        k(   20) = (  -0.0605918   0.0583045   0.0000000), wk =   0.1111111

     Dense  grid:   899157 G-vectors     FFT dimensions: (  96,  96, 243)

     Smooth grid:   350049 G-vectors     FFT dimensions: (  72,  72, 180)

     Largest allocated arrays     est. size (Mb)     dimensions
        Kohn-Sham Wavefunctions         2.37 Mb     (     929,  167)
        NL pseudopotentials             4.65 Mb     (     929,  328)
        Each V/rho on FFT grid          0.70 Mb     (   46080)
        Each G-vector array             0.14 Mb     (   18345)
        G-vector shells                 0.06 Mb     (    8231)
     Largest temporary arrays     est. size (Mb)     dimensions
        Each subspace H/S matrix        0.43 Mb     (     167,  167)
        Each <psi_i|beta_j> matrix      0.84 Mb     (     328,  167)
        Arrays for rho mixing           5.62 Mb     (   46080,    8)

     Check: negative/imaginary core charge=   -0.000001    0.000000

     Initial potential from superposition of free atoms
     Check: negative starting charge=   -1.119292

     starting charge  310.99532, renormalised to  314.00000

     negative rho (up, down):  1.130E+00 0.000E+00
     Starting wfc are  194 randomized atomic wfcs
     Checking if some PAW data can be deallocated... 

     total cpu time spent up to now is       35.7 secs

     per-process dynamical memory:    84.7 Mb

     Self-consistent Calculation

     iteration #  1     ecut=    44.10 Ry     beta=0.05
     CG style diagonalization
     ethr =  1.00E-02,  avg # of iterations =  2.6

     negative rho (up, down):  1.119E+00 0.000E+00

     total cpu time spent up to now is      155.7 secs

     total energy              =   -7411.37973715 Ry
     Harris-Foulkes estimate   =   -7411.79041563 Ry
     estimated scf accuracy    <      20.96735209 Ry

     iteration #  2     ecut=    44.10 Ry     beta=0.05
     CG style diagonalization
     ethr =  6.68E-03,  avg # of iterations =  3.0

     negative rho (up, down):  1.080E+00 0.000E+00

     total cpu time spent up to now is      243.5 secs

     total energy              =   -7410.18510414 Ry
     Harris-Foulkes estimate   =   -7411.56608112 Ry
     estimated scf accuracy    <      16.20425405 Ry

     iteration #  3     ecut=    44.10 Ry     beta=0.05
     CG style diagonalization
     ethr =  5.16E-03,  avg # of iterations =  3.0

     negative rho (up, down):  1.046E+00 0.000E+00

     total cpu time spent up to now is      502.1 secs

     total energy              =   -7409.63754511 Ry
     Harris-Foulkes estimate   =   -7410.48412031 Ry
     estimated scf accuracy    <       5.94213325 Ry

     iteration #  4     ecut=    44.10 Ry     beta=0.05
     CG style diagonalization
     ethr =  1.89E-03,  avg # of iterations =  3.0

     negative rho (up, down):  1.041E+00 0.000E+00

     total cpu time spent up to now is      791.1 secs

     total energy              =   -7409.84995731 Ry
     Harris-Foulkes estimate   =   -7409.95797919 Ry
     estimated scf accuracy    <       2.21938684 Ry

     iteration #  5     ecut=    44.10 Ry     beta=0.05
     CG style diagonalization
     ethr =  7.07E-04,  avg # of iterations =  3.0

     negative rho (up, down):  1.061E+00 0.000E+00

     total cpu time spent up to now is      882.0 secs

     total energy              =   -7409.69586563 Ry
     Harris-Foulkes estimate   =   -7409.91910741 Ry
     estimated scf accuracy    <       1.75816040 Ry

     iteration #  6     ecut=    44.10 Ry     beta=0.05
     CG style diagonalization
     ethr =  5.60E-04,  avg # of iterations =  3.0

     negative rho (up, down):  1.068E+00 0.000E+00

     total cpu time spent up to now is     1001.8 secs

     total energy              =   -7409.69094525 Ry
     Harris-Foulkes estimate   =   -7409.78096380 Ry
     estimated scf accuracy    <       0.51655407 Ry

     iteration #  7     ecut=    44.10 Ry     beta=0.05
     CG style diagonalization
     ethr =  1.65E-04,  avg # of iterations =  3.7

     negative rho (up, down):  1.065E+00 0.000E+00

     total cpu time spent up to now is     1111.7 secs

     total energy              =   -7409.75455056 Ry
     Harris-Foulkes estimate   =   -7409.78116663 Ry
     estimated scf accuracy    <       0.42964997 Ry

     iteration #  8     ecut=    44.10 Ry     beta=0.05
     CG style diagonalization
     ethr =  1.37E-04,  avg # of iterations =  3.0

     negative rho (up, down):  1.082E+00 0.000E+00

     total cpu time spent up to now is     1195.2 secs

     total energy              =   -7409.73905076 Ry
     Harris-Foulkes estimate   =   -7409.77686040 Ry
     estimated scf accuracy    <       0.28414204 Ry

     iteration #  9     ecut=    44.10 Ry     beta=0.05
     CG style diagonalization
     ethr =  9.05E-05,  avg # of iterations =  3.0

     negative rho (up, down):  1.096E+00 0.000E+00

     total cpu time spent up to now is     1277.1 secs

     total energy              =   -7409.72598463 Ry
     Harris-Foulkes estimate   =   -7409.75300027 Ry
     estimated scf accuracy    <       0.20514995 Ry

     iteration # 10     ecut=    44.10 Ry     beta=0.05
     CG style diagonalization
     ethr =  6.53E-05,  avg # of iterations =  3.7

     negative rho (up, down):  1.091E+00 0.000E+00

     total cpu time spent up to now is     1383.4 secs

     total energy              =   -7409.76744136 Ry
     Harris-Foulkes estimate   =   -7409.78094657 Ry
     estimated scf accuracy    <       0.31946389 Ry

     iteration # 11     ecut=    44.10 Ry     beta=0.05
     CG style diagonalization
     ethr =  6.53E-05,  avg # of iterations =  3.0

     negative rho (up, down):  1.099E+00 0.000E+00

     total cpu time spent up to now is     1469.5 secs

     total energy              =   -7409.74893735 Ry
     Harris-Foulkes estimate   =   -7409.77568892 Ry
     estimated scf accuracy    <       0.35126922 Ry

     iteration # 12     ecut=    44.10 Ry     beta=0.05
     CG style diagonalization
     ethr =  6.53E-05,  avg # of iterations =  3.0

     negative rho (up, down):  1.095E+00 0.000E+00

     total cpu time spent up to now is     1552.6 secs

     total energy              =   -7409.71671233 Ry
     Harris-Foulkes estimate   =   -7409.75408216 Ry
     estimated scf accuracy    <       0.19975948 Ry

     iteration # 13     ecut=    44.10 Ry     beta=0.05
     CG style diagonalization
     ethr =  6.36E-05,  avg # of iterations =  3.0

     negative rho (up, down):  1.086E+00 0.000E+00

     total cpu time spent up to now is     1638.6 secs

     total energy              =   -7409.72816776 Ry
     Harris-Foulkes estimate   =   -7409.73098197 Ry
     estimated scf accuracy    <       0.06900036 Ry

     iteration # 14     ecut=    44.10 Ry     beta=0.05
     CG style diagonalization
     ethr =  2.20E-05,  avg # of iterations =  3.0

     negative rho (up, down):  1.091E+00 0.000E+00

     total cpu time spent up to now is     1725.5 secs

     total energy              =   -7409.72126292 Ry
     Harris-Foulkes estimate   =   -7409.73152930 Ry
     estimated scf accuracy    <       0.03953680 Ry

     iteration # 15     ecut=    44.10 Ry     beta=0.05
     CG style diagonalization
     ethr =  1.26E-05,  avg # of iterations =  3.6

     negative rho (up, down):  1.091E+00 0.000E+00

     total cpu time spent up to now is     1835.4 secs

     total energy              =   -7409.72674744 Ry
     Harris-Foulkes estimate   =   -7409.73019588 Ry
     estimated scf accuracy    <       0.02764191 Ry

     iteration # 16     ecut=    44.10 Ry     beta=0.05
     CG style diagonalization
     ethr =  8.80E-06,  avg # of iterations =  3.0

     negative rho (up, down):  1.089E+00 0.000E+00

     total cpu time spent up to now is     1921.7 secs

     total energy              =   -7409.72765608 Ry
     Harris-Foulkes estimate   =   -7409.72869929 Ry
     estimated scf accuracy    <       0.01392957 Ry

     iteration # 17     ecut=    44.10 Ry     beta=0.05
     CG style diagonalization
     ethr =  4.44E-06,  avg # of iterations =  3.0

     negative rho (up, down):  1.068E+00 0.000E+00

     total cpu time spent up to now is     2008.3 secs

     total energy              =   -7409.72591330 Ry
     Harris-Foulkes estimate   =   -7409.72859042 Ry
     estimated scf accuracy    <       0.01231118 Ry

     iteration # 18     ecut=    44.10 Ry     beta=0.05
     CG style diagonalization
     c_bands:  1 eigenvalues not converged
     c_bands:  1 eigenvalues not converged
     ethr =  3.92E-06,  avg # of iterations =  3.1

     negative rho (up, down):  1.072E+00 0.000E+00

     total cpu time spent up to now is     2100.3 secs

     total energy              =   -7409.72546810 Ry
     Harris-Foulkes estimate   =   -7409.72711540 Ry
     estimated scf accuracy    <       0.00992493 Ry

     iteration # 19     ecut=    44.10 Ry     beta=0.05
     CG style diagonalization
     ethr =  3.16E-06,  avg # of iterations =  3.0

     negative rho (up, down):  1.069E+00 0.000E+00

     total cpu time spent up to now is     2187.8 secs

     total energy              =   -7409.72573836 Ry
     Harris-Foulkes estimate   =   -7409.72601362 Ry
     estimated scf accuracy    <       0.00596456 Ry

     iteration # 20     ecut=    44.10 Ry     beta=0.05
     CG style diagonalization
     ethr =  1.90E-06,  avg # of iterations =  3.0

     negative rho (up, down):  1.063E+00 0.000E+00

     total cpu time spent up to now is     2273.8 secs

     total energy              =   -7409.72511915 Ry
     Harris-Foulkes estimate   =   -7409.72603123 Ry
     estimated scf accuracy    <       0.00745327 Ry

     iteration # 21     ecut=    44.10 Ry     beta=0.05
     CG style diagonalization
     ethr =  1.90E-06,  avg # of iterations =  3.0

     negative rho (up, down):  1.060E+00 0.000E+00

     total cpu time spent up to now is     2361.5 secs

     total energy              =   -7409.72558970 Ry
     Harris-Foulkes estimate   =   -7409.72578756 Ry
     estimated scf accuracy    <       0.00543858 Ry

     iteration # 22     ecut=    44.10 Ry     beta=0.05
     CG style diagonalization
     ethr =  1.73E-06,  avg # of iterations =  3.0

     negative rho (up, down):  1.064E+00 0.000E+00

     total cpu time spent up to now is     2448.1 secs

     total energy              =   -7409.72538153 Ry
     Harris-Foulkes estimate   =   -7409.72612562 Ry
     estimated scf accuracy    <       0.00444015 Ry

     iteration # 23     ecut=    44.10 Ry     beta=0.05
     CG style diagonalization
     ethr =  1.41E-06,  avg # of iterations =  3.0

     negative rho (up, down):  1.063E+00 0.000E+00

     total cpu time spent up to now is     2534.4 secs

     total energy              =   -7409.72567141 Ry
     Harris-Foulkes estimate   =   -7409.72567717 Ry
     estimated scf accuracy    <       0.00291184 Ry

     iteration # 24     ecut=    44.10 Ry     beta=0.05
     CG style diagonalization
     ethr =  9.27E-07,  avg # of iterations =  3.5

     negative rho (up, down):  1.065E+00 0.000E+00

     total cpu time spent up to now is     2637.9 secs

     total energy              =   -7409.72558540 Ry
     Harris-Foulkes estimate   =   -7409.72599971 Ry
     estimated scf accuracy    <       0.00245574 Ry

     iteration # 25     ecut=    44.10 Ry     beta=0.05
     CG style diagonalization
     ethr =  7.82E-07,  avg # of iterations =  3.5

     negative rho (up, down):  1.066E+00 0.000E+00

     total cpu time spent up to now is     2740.6 secs

     total energy              =   -7409.72576223 Ry
     Harris-Foulkes estimate   =   -7409.72588436 Ry
     estimated scf accuracy    <       0.00202819 Ry

     iteration # 26     ecut=    44.10 Ry     beta=0.05
     CG style diagonalization
     ethr =  6.46E-07,  avg # of iterations =  3.0

     negative rho (up, down):  1.069E+00 0.000E+00

     total cpu time spent up to now is     2826.8 secs

     total energy              =   -7409.72588209 Ry
     Harris-Foulkes estimate   =   -7409.72581170 Ry
     estimated scf accuracy    <       0.00149506 Ry

     iteration # 27     ecut=    44.10 Ry     beta=0.05
     CG style diagonalization
     ethr =  4.76E-07,  avg # of iterations =  3.4

     negative rho (up, down):  1.068E+00 0.000E+00

     total cpu time spent up to now is     2928.3 secs

     total energy              =   -7409.72588493 Ry
     Harris-Foulkes estimate   =   -7409.72604923 Ry
     estimated scf accuracy    <       0.00158991 Ry

     iteration # 28     ecut=    44.10 Ry     beta=0.05
     CG style diagonalization
     ethr =  4.76E-07,  avg # of iterations =  3.0

     negative rho (up, down):  1.067E+00 0.000E+00

     total cpu time spent up to now is     3014.5 secs

     total energy              =   -7409.72586047 Ry
     Harris-Foulkes estimate   =   -7409.72591694 Ry
     estimated scf accuracy    <       0.00134513 Ry

     iteration # 29     ecut=    44.10 Ry     beta=0.05
     CG style diagonalization
     ethr =  4.28E-07,  avg # of iterations =  3.0

     negative rho (up, down):  1.072E+00 0.000E+00

     total cpu time spent up to now is     3100.5 secs

     total energy              =   -7409.72607708 Ry
     Harris-Foulkes estimate   =   -7409.72589347 Ry
     estimated scf accuracy    <       0.00124742 Ry

     iteration # 30     ecut=    44.10 Ry     beta=0.05
     CG style diagonalization
     ethr =  3.97E-07,  avg # of iterations =  3.0

     negative rho (up, down):  1.073E+00 0.000E+00

     total cpu time spent up to now is     3186.5 secs

     total energy              =   -7409.72601221 Ry
     Harris-Foulkes estimate   =   -7409.72612844 Ry
     estimated scf accuracy    <       0.00096780 Ry

     iteration # 31     ecut=    44.10 Ry     beta=0.05
     CG style diagonalization
     ethr =  3.08E-07,  avg # of iterations =  3.0

     negative rho (up, down):  1.070E+00 0.000E+00

     total cpu time spent up to now is     3273.6 secs

     total energy              =   -7409.72613209 Ry
     Harris-Foulkes estimate   =   -7409.72607899 Ry
     estimated scf accuracy    <       0.00087259 Ry

     iteration # 32     ecut=    44.10 Ry     beta=0.05
     CG style diagonalization
     ethr =  2.78E-07,  avg # of iterations =  3.1

     negative rho (up, down):  1.071E+00 0.000E+00

     total cpu time spent up to now is     3361.9 secs

     total energy              =   -7409.72610416 Ry
     Harris-Foulkes estimate   =   -7409.72618804 Ry
     estimated scf accuracy    <       0.00115715 Ry

     iteration # 33     ecut=    44.10 Ry     beta=0.05
     CG style diagonalization
     ethr =  2.78E-07,  avg # of iterations =  3.0

     negative rho (up, down):  1.071E+00 0.000E+00

     total cpu time spent up to now is     3447.7 secs

     total energy              =   -7409.72608984 Ry
     Harris-Foulkes estimate   =   -7409.72612215 Ry
     estimated scf accuracy    <       0.00093307 Ry

     iteration # 34     ecut=    44.10 Ry     beta=0.05
     CG style diagonalization
     ethr =  2.78E-07,  avg # of iterations =  3.0

     negative rho (up, down):  1.068E+00 0.000E+00

     total cpu time spent up to now is     3533.6 secs

     total energy              =   -7409.72611472 Ry
     Harris-Foulkes estimate   =   -7409.72609999 Ry
     estimated scf accuracy    <       0.00079951 Ry

     iteration # 35     ecut=    44.10 Ry     beta=0.05
     CG style diagonalization
     ethr =  2.55E-07,  avg # of iterations =  3.0

     negative rho (up, down):  1.069E+00 0.000E+00

     total cpu time spent up to now is     3620.1 secs

     total energy              =   -7409.72597716 Ry
     Harris-Foulkes estimate   =   -7409.72612325 Ry
     estimated scf accuracy    <       0.00071098 Ry

     iteration # 36     ecut=    44.10 Ry     beta=0.05
     CG style diagonalization
     ethr =  2.26E-07,  avg # of iterations =  3.1

     negative rho (up, down):  1.071E+00 0.000E+00

     total cpu time spent up to now is     3711.2 secs

     total energy              =   -7409.72597281 Ry
     Harris-Foulkes estimate   =   -7409.72604215 Ry
     estimated scf accuracy    <       0.00050360 Ry

     iteration # 37     ecut=    44.10 Ry     beta=0.05
     CG style diagonalization
     ethr =  1.60E-07,  avg # of iterations =  3.1

     negative rho (up, down):  1.073E+00 0.000E+00

     total cpu time spent up to now is     3801.3 secs

     total energy              =   -7409.72599511 Ry
     Harris-Foulkes estimate   =   -7409.72601840 Ry
     estimated scf accuracy    <       0.00046337 Ry

     iteration # 38     ecut=    44.10 Ry     beta=0.05
     CG style diagonalization
     ethr =  1.48E-07,  avg # of iterations =  3.0

     negative rho (up, down):  1.073E+00 0.000E+00

     total cpu time spent up to now is     3888.7 secs

     total energy              =   -7409.72589347 Ry
     Harris-Foulkes estimate   =   -7409.72601832 Ry
     estimated scf accuracy    <       0.00047676 Ry

     iteration # 39     ecut=    44.10 Ry     beta=0.05
     CG style diagonalization
     ethr =  1.48E-07,  avg # of iterations =  3.5

     negative rho (up, down):  1.072E+00 0.000E+00

     total cpu time spent up to now is     3994.6 secs

     total energy              =   -7409.72589512 Ry
     Harris-Foulkes estimate   =   -7409.72596647 Ry
     estimated scf accuracy    <       0.00029036 Ry

     iteration # 40     ecut=    44.10 Ry     beta=0.05
     CG style diagonalization
     ethr =  9.25E-08,  avg # of iterations =  3.1

     negative rho (up, down):  1.072E+00 0.000E+00

     total cpu time spent up to now is     4083.1 secs

     total energy              =   -7409.72590352 Ry
     Harris-Foulkes estimate   =   -7409.72591457 Ry
     estimated scf accuracy    <       0.00022494 Ry

     iteration # 41     ecut=    44.10 Ry     beta=0.05
     CG style diagonalization
     ethr =  7.16E-08,  avg # of iterations =  3.0

     negative rho (up, down):  1.074E+00 0.000E+00

     total cpu time spent up to now is     4169.4 secs

     total energy              =   -7409.72586864 Ry
     Harris-Foulkes estimate   =   -7409.72590639 Ry
     estimated scf accuracy    <       0.00020246 Ry

     iteration # 42     ecut=    44.10 Ry     beta=0.05
     CG style diagonalization
     ethr =  6.45E-08,  avg # of iterations =  3.0

     negative rho (up, down):  1.074E+00 0.000E+00

     total cpu time spent up to now is     4256.8 secs

     total energy              =   -7409.72587665 Ry
     Harris-Foulkes estimate   =   -7409.72587946 Ry
     estimated scf accuracy    <       0.00010595 Ry

     iteration # 43     ecut=    44.10 Ry     beta=0.05
     CG style diagonalization
     ethr =  3.37E-08,  avg # of iterations =  3.6

     negative rho (up, down):  1.075E+00 0.000E+00

     total cpu time spent up to now is     4364.4 secs

     total energy              =   -7409.72588565 Ry
     Harris-Foulkes estimate   =   -7409.72590405 Ry
     estimated scf accuracy    <       0.00013381 Ry

     iteration # 44     ecut=    44.10 Ry     beta=0.05
     CG style diagonalization
     ethr =  3.37E-08,  avg # of iterations =  3.0

     negative rho (up, down):  1.076E+00 0.000E+00

     total cpu time spent up to now is     4450.7 secs

     total energy              =   -7409.72588977 Ry
     Harris-Foulkes estimate   =   -7409.72589201 Ry
     estimated scf accuracy    <       0.00007344 Ry

     iteration # 45     ecut=    44.10 Ry     beta=0.05
     CG style diagonalization
     ethr =  2.34E-08,  avg # of iterations =  3.4

     negative rho (up, down):  1.076E+00 0.000E+00

     total cpu time spent up to now is     4552.5 secs

     total energy              =   -7409.72589768 Ry
     Harris-Foulkes estimate   =   -7409.72589853 Ry
     estimated scf accuracy    <       0.00005703 Ry

     iteration # 46     ecut=    44.10 Ry     beta=0.05
     CG style diagonalization
     ethr =  1.82E-08,  avg # of iterations =  3.0

     negative rho (up, down):  1.077E+00 0.000E+00

     total cpu time spent up to now is     4638.7 secs

     total energy              =   -7409.72591171 Ry
     Harris-Foulkes estimate   =   -7409.72590001 Ry
     estimated scf accuracy    <       0.00003960 Ry

     iteration # 47     ecut=    44.10 Ry     beta=0.05
     CG style diagonalization
     ethr =  1.26E-08,  avg # of iterations =  3.6

     negative rho (up, down):  1.077E+00 0.000E+00

     total cpu time spent up to now is     4746.6 secs

     total energy              =   -7409.72589787 Ry
     Harris-Foulkes estimate   =   -7409.72591873 Ry
     estimated scf accuracy    <       0.00005264 Ry

     iteration # 48     ecut=    44.10 Ry     beta=0.05
     CG style diagonalization
     ethr =  1.26E-08,  avg # of iterations =  3.6

     negative rho (up, down):  1.078E+00 0.000E+00

     total cpu time spent up to now is     4854.9 secs

     total energy              =   -7409.72590183 Ry
     Harris-Foulkes estimate   =   -7409.72591325 Ry
     estimated scf accuracy    <       0.00003198 Ry

     iteration # 49     ecut=    44.10 Ry     beta=0.05
     CG style diagonalization
     ethr =  1.02E-08,  avg # of iterations =  3.6

     negative rho (up, down):  1.077E+00 0.000E+00

     total cpu time spent up to now is     4962.4 secs

     total energy              =   -7409.72591217 Ry
     Harris-Foulkes estimate   =   -7409.72591174 Ry
     estimated scf accuracy    <       0.00001803 Ry

     iteration # 50     ecut=    44.10 Ry     beta=0.05
     CG style diagonalization
     ethr =  5.74E-09,  avg # of iterations =  3.0

     negative rho (up, down):  1.078E+00 0.000E+00

     total cpu time spent up to now is     5050.0 secs

     total energy              =   -7409.72590963 Ry
     Harris-Foulkes estimate   =   -7409.72591248 Ry
     estimated scf accuracy    <       0.00001827 Ry

     iteration # 51     ecut=    44.10 Ry     beta=0.05
     CG style diagonalization
     ethr =  5.74E-09,  avg # of iterations =  3.0

     negative rho (up, down):  1.078E+00 0.000E+00

     total cpu time spent up to now is     5135.8 secs

     total energy              =   -7409.72591115 Ry
     Harris-Foulkes estimate   =   -7409.72591033 Ry
     estimated scf accuracy    <       0.00001187 Ry

     iteration # 52     ecut=    44.10 Ry     beta=0.05
     CG style diagonalization
     ethr =  3.78E-09,  avg # of iterations =  3.0

     negative rho (up, down):  1.078E+00 0.000E+00

     total cpu time spent up to now is     5221.9 secs

     total energy              =   -7409.72591177 Ry
     Harris-Foulkes estimate   =   -7409.72591123 Ry
     estimated scf accuracy    <       0.00001160 Ry

     iteration # 53     ecut=    44.10 Ry     beta=0.05
     CG style diagonalization
     ethr =  3.70E-09,  avg # of iterations =  3.0

     negative rho (up, down):  1.078E+00 0.000E+00

     total cpu time spent up to now is     5307.4 secs

     total energy              =   -7409.72591258 Ry
     Harris-Foulkes estimate   =   -7409.72591179 Ry
     estimated scf accuracy    <       0.00001154 Ry

     iteration # 54     ecut=    44.10 Ry     beta=0.05
     CG style diagonalization
     ethr =  3.68E-09,  avg # of iterations =  3.0

     negative rho (up, down):  1.078E+00 0.000E+00

     total cpu time spent up to now is     5394.0 secs

     total energy              =   -7409.72591636 Ry
     Harris-Foulkes estimate   =   -7409.72591270 Ry
     estimated scf accuracy    <       0.00001382 Ry

     iteration # 55     ecut=    44.10 Ry     beta=0.05
     CG style diagonalization
     ethr =  3.68E-09,  avg # of iterations =  3.1

     negative rho (up, down):  1.078E+00 0.000E+00

     total cpu time spent up to now is     5483.0 secs

     total energy              =   -7409.72591553 Ry
     Harris-Foulkes estimate   =   -7409.72591721 Ry
     estimated scf accuracy    <       0.00002400 Ry

     iteration # 56     ecut=    44.10 Ry     beta=0.05
     CG style diagonalization
     ethr =  3.68E-09,  avg # of iterations =  3.0

     negative rho (up, down):  1.077E+00 0.000E+00

     total cpu time spent up to now is     5568.9 secs

     total energy              =   -7409.72591101 Ry
     Harris-Foulkes estimate   =   -7409.72591567 Ry
     estimated scf accuracy    <       0.00002031 Ry

     iteration # 57     ecut=    44.10 Ry     beta=0.05
     CG style diagonalization
     ethr =  3.68E-09,  avg # of iterations =  3.1

     negative rho (up, down):  1.077E+00 0.000E+00

     total cpu time spent up to now is     5660.2 secs

     total energy              =   -7409.72591103 Ry
     Harris-Foulkes estimate   =   -7409.72591198 Ry
     estimated scf accuracy    <       0.00000987 Ry

     iteration # 58     ecut=    44.10 Ry     beta=0.05
     CG style diagonalization
     ethr =  3.14E-09,  avg # of iterations =  3.1

     negative rho (up, down):  1.078E+00 0.000E+00

     total cpu time spent up to now is     5748.4 secs

     total energy              =   -7409.72591154 Ry
     Harris-Foulkes estimate   =   -7409.72591169 Ry
     estimated scf accuracy    <       0.00000639 Ry

     iteration # 59     ecut=    44.10 Ry     beta=0.05
     CG style diagonalization
     ethr =  2.03E-09,  avg # of iterations =  3.0

     negative rho (up, down):  1.078E+00 0.000E+00

     total cpu time spent up to now is     5833.6 secs

     total energy              =   -7409.72591110 Ry
     Harris-Foulkes estimate   =   -7409.72591170 Ry
     estimated scf accuracy    <       0.00000513 Ry

     iteration # 60     ecut=    44.10 Ry     beta=0.05
     CG style diagonalization
     ethr =  1.63E-09,  avg # of iterations =  3.0

     negative rho (up, down):  1.078E+00 0.000E+00

     total cpu time spent up to now is     5920.9 secs

     total energy              =   -7409.72591106 Ry
     Harris-Foulkes estimate   =   -7409.72591119 Ry
     estimated scf accuracy    <       0.00000398 Ry

     iteration # 61     ecut=    44.10 Ry     beta=0.05
     CG style diagonalization
     ethr =  1.27E-09,  avg # of iterations =  3.2

     negative rho (up, down):  1.078E+00 0.000E+00

     total cpu time spent up to now is     6016.2 secs

     total energy              =   -7409.72591017 Ry
     Harris-Foulkes estimate   =   -7409.72591145 Ry
     estimated scf accuracy    <       0.00000346 Ry

     iteration # 62     ecut=    44.10 Ry     beta=0.05
     CG style diagonalization
     ethr =  1.10E-09,  avg # of iterations =  3.6

     negative rho (up, down):  1.078E+00 0.000E+00

     total cpu time spent up to now is     6122.1 secs

     total energy              =   -7409.72591045 Ry
     Harris-Foulkes estimate   =   -7409.72591096 Ry
     estimated scf accuracy    <       0.00000282 Ry

     iteration # 63     ecut=    44.10 Ry     beta=0.05
     CG style diagonalization
     ethr =  8.98E-10,  avg # of iterations =  3.0

     negative rho (up, down):  1.078E+00 0.000E+00

     total cpu time spent up to now is     6209.4 secs

     total energy              =   -7409.72591090 Ry
     Harris-Foulkes estimate   =   -7409.72591063 Ry
     estimated scf accuracy    <       0.00000128 Ry

     iteration # 64     ecut=    44.10 Ry     beta=0.05
     CG style diagonalization
     ethr =  4.08E-10,  avg # of iterations =  4.2

     negative rho (up, down):  1.078E+00 0.000E+00

     total cpu time spent up to now is     6339.3 secs

     total energy              =   -7409.72591058 Ry
     Harris-Foulkes estimate   =   -7409.72591177 Ry
     estimated scf accuracy    <       0.00000356 Ry

     iteration # 65     ecut=    44.10 Ry     beta=0.05
     CG style diagonalization
     ethr =  4.08E-10,  avg # of iterations =  3.9

     negative rho (up, down):  1.078E+00 0.000E+00

     total cpu time spent up to now is     6457.1 secs

     total energy              =   -7409.72591135 Ry
     Harris-Foulkes estimate   =   -7409.72591115 Ry
     estimated scf accuracy    <       0.00000062 Ry

     iteration # 66     ecut=    44.10 Ry     beta=0.05
     CG style diagonalization
     ethr =  1.97E-10,  avg # of iterations =  3.1

     negative rho (up, down):  1.078E+00 0.000E+00

     total cpu time spent up to now is     6549.2 secs

     total energy              =   -7409.72591132 Ry
     Harris-Foulkes estimate   =   -7409.72591139 Ry
     estimated scf accuracy    <       0.00000066 Ry

     iteration # 67     ecut=    44.10 Ry     beta=0.05
     CG style diagonalization
     ethr =  1.97E-10,  avg # of iterations =  3.1

     negative rho (up, down):  1.078E+00 0.000E+00

     total cpu time spent up to now is     6640.9 secs

     total energy              =   -7409.72591148 Ry
     Harris-Foulkes estimate   =   -7409.72591138 Ry
     estimated scf accuracy    <       0.00000033 Ry

     iteration # 68     ecut=    44.10 Ry     beta=0.05
     CG style diagonalization
     ethr =  1.04E-10,  avg # of iterations =  3.0

     negative rho (up, down):  1.078E+00 0.000E+00

     total cpu time spent up to now is     6726.2 secs

     total energy              =   -7409.72591164 Ry
     Harris-Foulkes estimate   =   -7409.72591149 Ry
     estimated scf accuracy    <       0.00000024 Ry

     iteration # 69     ecut=    44.10 Ry     beta=0.05
     CG style diagonalization
     ethr =  7.57E-11,  avg # of iterations =  3.1

     negative rho (up, down):  1.078E+00 0.000E+00

     total cpu time spent up to now is     6817.8 secs

     total energy              =   -7409.72591175 Ry
     Harris-Foulkes estimate   =   -7409.72591166 Ry
     estimated scf accuracy    <       0.00000027 Ry

     iteration # 70     ecut=    44.10 Ry     beta=0.05
     CG style diagonalization
     ethr =  7.57E-11,  avg # of iterations =  3.0

     negative rho (up, down):  1.078E+00 0.000E+00

     total cpu time spent up to now is     6905.3 secs

     total energy              =   -7409.72591185 Ry
     Harris-Foulkes estimate   =   -7409.72591176 Ry
     estimated scf accuracy    <       0.00000008 Ry

     iteration # 71     ecut=    44.10 Ry     beta=0.05
     CG style diagonalization
     ethr =  2.40E-11,  avg # of iterations =  3.6

     negative rho (up, down):  1.078E+00 0.000E+00

     total cpu time spent up to now is     7013.5 secs

     End of self-consistent calculation

          k = 0.0000 0.0000 0.0000 ( 43889 PWs)   bands (ev):

   -84.0919 -84.0503 -83.9280 -83.8964 -83.8737 -83.8519 -83.8401 -83.8165
   -83.8096 -83.8083 -83.8005 -83.7707 -52.5087 -52.2083 -52.2064 -52.2021
   -52.1454 -52.0869 -52.0736 -52.0592 -52.0475 -52.0176 -52.0141 -52.0033
   -51.9998 -51.8474 -51.8078 -51.7844 -51.7744 -51.7496 -50.0855 -49.9944
   -49.8211 -49.7809 -49.7567 -49.7405 -49.7322 -49.7109 -49.7041 -49.6882
   -49.6834 -49.6762 -49.6613 -49.6494 -49.6393 -49.6291 -49.6178 -49.5976
   -49.5924 -49.5603 -49.5468 -49.5322 -49.4991 -49.4947 -49.4936 -49.4793
   -49.4528 -49.4476 -49.4148 -49.4069 -49.3917 -49.3701 -49.3566 -49.3276
   -49.3054 -49.2914 -13.4713  -6.8005  -5.6063  -5.2350  -5.1801  -5.1444
    -4.9195  -4.8651  -4.8128  -4.7267  -4.7097  -4.6234  -4.4975  -4.4252
    -4.3610  -4.1279  -4.1031  -4.0968  -4.0379  -3.9810  -3.9287  -3.8150
    -3.7522  -3.6526  -3.6387  -3.5739  -3.5529  -3.0927  -2.9825  -2.9190
    -2.8679  -2.8049  -2.7930  -2.7431  -2.7103  -2.6900  -2.6620  -2.6146
    -2.5771  -2.5677  -2.5086  -2.5009  -2.4816  -2.4798  -2.3361  -2.1456
    -1.9607  -1.9512  -1.8906  -1.8698  -1.8411  -1.8254  -1.8070  -1.7954
    -1.7935  -1.7858  -1.7776  -1.7185  -1.5102  -1.4346  -1.3256  -1.1862
    -1.1638  -1.1032  -1.0645  -0.9892  -0.9463  -0.9345  -0.9137  -0.9014
    -0.8442  -0.8230  -0.7964  -0.7799  -0.7543  -0.7179  -0.7052  -0.6753
    -0.6391  -0.6179  -0.4770  -0.4567  -0.4047  -0.3981  -0.3904  -0.3583
    -0.3173  -0.2707  -0.2450  -0.2169  -0.1779  -0.1453  -0.1017  -0.0652
    -0.0507  -0.0322  -0.0094   0.0242   0.5337   1.4803   1.7337

          k = 0.0000 0.0233 0.0000 ( 43809 PWs)   bands (ev):

   -84.0919 -84.0503 -83.9280 -83.8965 -83.8736 -83.8519 -83.8401 -83.8166
   -83.8095 -83.8082 -83.8006 -83.7707 -52.5089 -52.2086 -52.2068 -52.2027
   -52.1458 -52.0869 -52.0734 -52.0590 -52.0474 -52.0171 -52.0134 -52.0033
   -51.9996 -51.8474 -51.8078 -51.7844 -51.7744 -51.7496 -50.0850 -49.9939
   -49.8235 -49.7825 -49.7560 -49.7443 -49.7384 -49.7119 -49.6935 -49.6883
   -49.6818 -49.6735 -49.6562 -49.6468 -49.6345 -49.6277 -49.6135 -49.5940
   -49.5889 -49.5599 -49.5463 -49.5358 -49.5016 -49.4978 -49.4941 -49.4799
   -49.4579 -49.4485 -49.4147 -49.4068 -49.3915 -49.3703 -49.3567 -49.3274
   -49.3054 -49.2913 -13.4695  -6.7147  -5.5575  -5.2502  -5.1675  -5.0931
    -4.9302  -4.8501  -4.7526  -4.7251  -4.6674  -4.5969  -4.4322  -4.3848
    -4.2989  -4.1947  -4.1628  -4.1100  -4.0476  -4.0092  -3.8761  -3.8219
    -3.7376  -3.7015  -3.6810  -3.6477  -3.5053  -3.1230  -3.0048  -2.9955
    -2.8627  -2.8270  -2.7901  -2.7767  -2.7595  -2.7132  -2.6668  -2.6552
    -2.6377  -2.5845  -2.5403  -2.4835  -2.3289  -2.3193  -2.2807  -2.2465
    -2.2071  -2.1669  -2.0936  -2.0192  -1.9682  -1.9432  -1.8979  -1.8894
    -1.8079  -1.7737  -1.7143  -1.6829  -1.6571  -1.5896  -1.4211  -1.2849
    -1.2161  -1.1994  -1.1482  -1.1122  -1.1038  -1.0229  -1.0140  -0.9652
    -0.9607  -0.8370  -0.8272  -0.7731  -0.7647  -0.7529  -0.6428  -0.5519
    -0.5059  -0.4511  -0.4323  -0.4128  -0.3947  -0.3388  -0.3160  -0.2297
    -0.2069  -0.1817  -0.1538  -0.1128  -0.0657  -0.0500  -0.0075   0.0304
     0.0787   0.1388   0.3752   0.4076   0.7357   1.4126   1.6305

          k = 0.0000 0.0466 0.0000 ( 43792 PWs)   bands (ev):

   -84.0919 -84.0503 -83.9279 -83.8965 -83.8736 -83.8518 -83.8401 -83.8169
   -83.8093 -83.8080 -83.8006 -83.7706 -52.5092 -52.2093 -52.2076 -52.2039
   -52.1465 -52.0869 -52.0730 -52.0584 -52.0472 -52.0163 -52.0120 -52.0031
   -51.9992 -51.8474 -51.8077 -51.7845 -51.7743 -51.7496 -50.0845 -49.9937
   -49.8291 -49.7869 -49.7579 -49.7537 -49.7377 -49.7172 -49.6890 -49.6861
   -49.6777 -49.6651 -49.6515 -49.6435 -49.6348 -49.6136 -49.6030 -49.5884
   -49.5810 -49.5593 -49.5510 -49.5395 -49.5088 -49.5057 -49.4941 -49.4817
   -49.4711 -49.4490 -49.4145 -49.4072 -49.3913 -49.3704 -49.3567 -49.3273
   -49.3052 -49.2916 -13.4660  -6.4893  -5.5403  -5.2997  -5.1099  -4.9972
    -4.9091  -4.8254  -4.6578  -4.6306  -4.5434  -4.5188  -4.3932  -4.2759
    -4.2597  -4.2257  -4.1649  -4.1350  -4.0791  -4.0234  -3.9597  -3.9250
    -3.8830  -3.8314  -3.6803  -3.5541  -3.3876  -3.2065  -3.0955  -3.0263
    -2.9890  -2.9330  -2.9214  -2.8542  -2.8389  -2.8035  -2.7842  -2.6914
    -2.6549  -2.6269  -2.5632  -2.5091  -2.4658  -2.4270  -2.3515  -2.3339
    -2.2904  -2.1719  -2.1587  -2.1418  -2.1004  -2.0098  -1.9760  -1.8982
    -1.8533  -1.8503  -1.8026  -1.7895  -1.7605  -1.6937  -1.6047  -1.5150
    -1.3248  -1.2993  -1.2176  -1.1360  -1.1084  -1.0712  -1.0287  -0.9628
    -0.9040  -0.9000  -0.8113  -0.8044  -0.7727  -0.7511  -0.7075  -0.5853
    -0.5580  -0.5051  -0.4894  -0.3839  -0.3350  -0.2925  -0.2453  -0.1883
    -0.1530  -0.1324  -0.0676  -0.0478  -0.0267   0.0460   0.0995   0.2296
     0.4179   0.4403   0.9694   1.3780   1.5006   1.5835   1.6126

          k = 0.0000-0.0700 0.0000 ( 43744 PWs)   bands (ev):

   -84.0919 -84.0503 -83.9279 -83.8966 -83.8736 -83.8518 -83.8402 -83.8170
   -83.8092 -83.8079 -83.8007 -83.7706 -52.5094 -52.2097 -52.2079 -52.2044
   -52.1469 -52.0869 -52.0729 -52.0581 -52.0471 -52.0160 -52.0113 -52.0030
   -51.9990 -51.8474 -51.8077 -51.7845 -51.7743 -51.7496 -50.0842 -49.9932
   -49.8314 -49.7886 -49.7617 -49.7532 -49.7367 -49.7197 -49.6879 -49.6853
   -49.6758 -49.6611 -49.6497 -49.6418 -49.6358 -49.6038 -49.5957 -49.5824
   -49.5781 -49.5636 -49.5552 -49.5347 -49.5142 -49.5099 -49.4942 -49.4819
   -49.4789 -49.4492 -49.4143 -49.4071 -49.3915 -49.3710 -49.3569 -49.3274
   -49.3052 -49.2913 -13.4643  -6.3117  -5.6744  -5.2387  -5.0888  -5.0205
    -4.8427  -4.7000  -4.6446  -4.5837  -4.4624  -4.4411  -4.3580  -4.3174
    -4.2618  -4.2476  -4.2233  -4.1594  -4.1000  -4.0594  -4.0275  -3.8940
    -3.8554  -3.7743  -3.6875  -3.6195  -3.2924  -3.2075  -3.2021  -3.1857
    -3.0635  -3.0216  -2.9746  -2.9513  -2.8962  -2.8724  -2.8560  -2.8126
    -2.6583  -2.6028  -2.5802  -2.5753  -2.4719  -2.4348  -2.4009  -2.3317
    -2.2694  -2.1940  -2.0625  -2.0569  -2.0346  -1.9885  -1.9621  -1.9424
    -1.9215  -1.8926  -1.8865  -1.8512  -1.8332  -1.8035  -1.5866  -1.5399
    -1.5351  -1.3709  -1.1832  -1.1458  -1.1311  -1.0804  -1.0496  -1.0351
    -0.8725  -0.8409  -0.8059  -0.7453  -0.7197  -0.7013  -0.6719  -0.6648
    -0.6312  -0.5828  -0.5720  -0.3930  -0.3345  -0.3159  -0.2246  -0.1584
    -0.1305  -0.0459  -0.0154   0.0231   0.0853   0.1008   0.1690   0.2059
     0.3200   0.5535   1.0692   1.5053   1.8279   2.4370   2.6183

          k = 0.0202 0.0350 0.0000 ( 43807 PWs)   bands (ev):

   -84.0919 -84.0503 -83.9279 -83.8965 -83.8736 -83.8517 -83.8404 -83.8169
   -83.8092 -83.8081 -83.8006 -83.7707 -52.5092 -52.2096 -52.2071 -52.2039
   -52.1469 -52.0866 -52.0727 -52.0584 -52.0473 -52.0167 -52.0122 -52.0026
   -51.9992 -51.8474 -51.8078 -51.7844 -51.7743 -51.7496 -50.0868 -49.9922
   -49.8268 -49.7845 -49.7603 -49.7539 -49.7398 -49.7197 -49.7034 -49.6851
   -49.6758 -49.6531 -49.6493 -49.6443 -49.6315 -49.6167 -49.6051 -49.5907
   -49.5821 -49.5586 -49.5495 -49.5395 -49.5089 -49.5029 -49.4940 -49.4866
   -49.4668 -49.4488 -49.4144 -49.4071 -49.3913 -49.3715 -49.3561 -49.3265
   -49.3061 -49.2911 -13.4670  -6.5394  -5.5213  -5.2535  -5.1492  -5.0517
    -4.9173  -4.8417  -4.7647  -4.6677  -4.5507  -4.4911  -4.3569  -4.3151
    -4.2837  -4.2276  -4.2012  -4.1450  -4.0777  -4.0415  -3.9403  -3.8657
    -3.8199  -3.7626  -3.6893  -3.5446  -3.4503  -3.1778  -3.0872  -3.0170
    -2.9449  -2.9287  -2.8670  -2.8143  -2.7754  -2.7581  -2.7276  -2.7030
    -2.6799  -2.5751  -2.5127  -2.4671  -2.4352  -2.3765  -2.3415  -2.3208
    -2.2737  -2.2437  -2.1962  -2.1579  -2.0991  -2.0553  -1.9979  -1.9805
    -1.8985  -1.7911  -1.7722  -1.7400  -1.7019  -1.6534  -1.4357  -1.3710
    -1.3467  -1.2761  -1.2644  -1.2257  -1.1263  -1.0509  -1.0133  -0.9636
    -0.9481  -0.8875  -0.8590  -0.8159  -0.8048  -0.7371  -0.6264  -0.5715
    -0.5118  -0.4456  -0.4129  -0.3836  -0.3736  -0.2529  -0.2223  -0.1953
    -0.1541  -0.1373  -0.1190  -0.0714  -0.0499  -0.0203   0.1537   0.1921
     0.3594   0.5509   0.6638   1.0718   1.1448   1.3876   1.7240

          k = 0.0202-0.0816 0.0000 ( 43761 PWs)   bands (ev):

   -84.0919 -84.0503 -83.9279 -83.8966 -83.8736 -83.8516 -83.8404 -83.8170
   -83.8091 -83.8079 -83.8007 -83.7706 -52.5094 -52.2101 -52.2075 -52.2047
   -52.1473 -52.0866 -52.0727 -52.0581 -52.0472 -52.0159 -52.0114 -52.0025
   -51.9990 -51.8474 -51.8078 -51.7844 -51.7743 -51.7496 -50.0864 -49.9920
   -49.8307 -49.7868 -49.7628 -49.7540 -49.7384 -49.7207 -49.7036 -49.6822
   -49.6709 -49.6545 -49.6489 -49.6430 -49.6314 -49.6043 -49.5946 -49.5842
   -49.5793 -49.5620 -49.5561 -49.5362 -49.5136 -49.5098 -49.4940 -49.4874
   -49.4757 -49.4490 -49.4140 -49.4066 -49.3912 -49.3716 -49.3560 -49.3263
   -49.3058 -49.2907 -13.4645  -6.2982  -5.6011  -5.3224  -5.0821  -4.9949
    -4.8621  -4.8030  -4.6515  -4.5854  -4.5482  -4.4118  -4.3543  -4.3179
    -4.2675  -4.2503  -4.1803  -4.1468  -4.1002  -4.0501  -3.9589  -3.9197
    -3.8377  -3.7947  -3.6751  -3.4970  -3.3233  -3.2351  -3.1943  -3.1309
    -3.0268  -3.0042  -2.9391  -2.9063  -2.8877  -2.8524  -2.7938  -2.7575
    -2.6911  -2.6648  -2.6073  -2.5422  -2.5152  -2.4592  -2.4210  -2.3609
    -2.3371  -2.2525  -2.1941  -2.1772  -2.1140  -2.0992  -2.0299  -1.9851
    -1.9714  -1.8932  -1.8359  -1.7695  -1.7203  -1.6894  -1.5582  -1.4279
    -1.3978  -1.3127  -1.2670  -1.2275  -1.1954  -1.0970  -1.0134  -0.9526
    -0.9303  -0.8914  -0.8406  -0.7750  -0.7408  -0.7316  -0.6979  -0.6688
    -0.6106  -0.5071  -0.4148  -0.3768  -0.3262  -0.2781  -0.2478  -0.1564
    -0.1462  -0.0750  -0.0125   0.0091   0.0925   0.1405   0.1669   0.3204
     0.3798   0.6363   0.8882   1.3816   1.7131   2.3246   2.5298

          k = 0.0404-0.0700 0.0000 ( 43728 PWs)   bands (ev):

   -84.0919 -84.0504 -83.9279 -83.8965 -83.8736 -83.8512 -83.8410 -83.8169
   -83.8090 -83.8080 -83.8006 -83.7706 -52.5092 -52.2110 -52.2071 -52.2049
   -52.1478 -52.0860 -52.0726 -52.0585 -52.0475 -52.0153 -52.0117 -52.0017
   -51.9991 -51.8474 -51.8079 -51.7843 -51.7743 -51.7497 -50.0896 -49.9884
   -49.8306 -49.7811 -49.7600 -49.7528 -49.7393 -49.7168 -49.7153 -49.6805
   -49.6721 -49.6536 -49.6501 -49.6459 -49.6243 -49.6082 -49.5904 -49.5827
   -49.5791 -49.5623 -49.5537 -49.5426 -49.5137 -49.5055 -49.4969 -49.4939
   -49.4688 -49.4487 -49.4141 -49.4061 -49.3914 -49.3732 -49.3552 -49.3243
   -49.3078 -49.2903 -13.4647  -6.0893  -5.7722  -5.3657  -4.9884  -4.9322
    -4.8571  -4.7762  -4.7101  -4.6296  -4.5190  -4.4283  -4.3715  -4.3515
    -4.2971  -4.2420  -4.2089  -4.1546  -4.0494  -3.9786  -3.9152  -3.8915
    -3.8274  -3.7623  -3.6271  -3.3811  -3.3509  -3.3065  -3.1599  -3.1217
    -3.0603  -3.0248  -2.9973  -2.9495  -2.9055  -2.8351  -2.8119  -2.7656
    -2.7333  -2.6962  -2.6812  -2.6574  -2.5985  -2.5637  -2.5088  -2.3519
    -2.3255  -2.2310  -2.2098  -2.1845  -2.1566  -2.1045  -2.0761  -2.0477
    -1.9426  -1.9191  -1.8030  -1.7717  -1.7297  -1.6922  -1.6395  -1.4179
    -1.3748  -1.3441  -1.3342  -1.3018  -1.1270  -0.9666  -0.9581  -0.9194
    -0.8888  -0.8708  -0.8334  -0.8254  -0.8003  -0.7810  -0.7459  -0.7255
    -0.5739  -0.4993  -0.4781  -0.3223  -0.3001  -0.2344  -0.1463  -0.1110
    -0.0664  -0.0506  -0.0058   0.0364   0.0664   0.0954   0.1273   0.2340
     0.4381   0.5713   1.2730   1.6028   1.7143   2.0614   3.2027

          k =-0.0202 0.0117 0.0000 ( 43809 PWs)   bands (ev):

   -84.0919 -84.0503 -83.9280 -83.8964 -83.8737 -83.8517 -83.8404 -83.8165
   -83.8095 -83.8082 -83.8005 -83.7707 -52.5087 -52.2090 -52.2065 -52.2026
   -52.1459 -52.0866 -52.0734 -52.0593 -52.0477 -52.0169 -52.0138 -52.0028
   -51.9998 -51.8474 -51.8078 -51.7844 -51.7743 -51.7496 -50.0866 -49.9921
   -49.8230 -49.7785 -49.7555 -49.7397 -49.7315 -49.7092 -49.7034 -49.7000
   -49.6834 -49.6651 -49.6587 -49.6494 -49.6358 -49.6260 -49.6127 -49.5964
   -49.5915 -49.5614 -49.5468 -49.5334 -49.5004 -49.4957 -49.4940 -49.4837
   -49.4539 -49.4480 -49.4148 -49.4064 -49.3917 -49.3712 -49.3561 -49.3267
   -49.3062 -49.2910 -13.4701  -6.7074  -5.5930  -5.2315  -5.1282  -5.0918
    -4.9061  -4.8507  -4.8084  -4.7356  -4.6625  -4.5837  -4.4174  -4.3759
    -4.3291  -4.2087  -4.1776  -4.1128  -4.0450  -3.9988  -3.8517  -3.8007
    -3.7462  -3.7042  -3.6582  -3.6222  -3.5653  -3.1169  -3.0334  -2.9588
    -2.8594  -2.8220  -2.7889  -2.7727  -2.7459  -2.7218  -2.6860  -2.6678
    -2.6191  -2.5876  -2.5500  -2.4929  -2.3555  -2.3291  -2.2802  -2.2386
    -2.1841  -2.1527  -2.0830  -2.0169  -1.9963  -1.9642  -1.9175  -1.8884
    -1.7938  -1.7703  -1.7119  -1.6671  -1.6344  -1.5795  -1.4199  -1.2871
    -1.2491  -1.2007  -1.1400  -1.1157  -1.1124  -1.0243  -1.0138  -0.9612
    -0.9458  -0.8544  -0.8116  -0.7820  -0.7631  -0.7439  -0.6413  -0.5393
    -0.5232  -0.4548  -0.4357  -0.4171  -0.3894  -0.3472  -0.3185  -0.2740
    -0.2121  -0.1896  -0.1269  -0.0897  -0.0623  -0.0417  -0.0203   0.0184
     0.0895   0.1745   0.3297   0.4241   0.7506   1.3357   1.7005

          k = 0.0202 0.0117 0.0000 ( 43809 PWs)   bands (ev):

   -84.0919 -84.0503 -83.9280 -83.8964 -83.8736 -83.8517 -83.8404 -83.8166
   -83.8093 -83.8082 -83.8006 -83.7707 -52.5088 -52.2091 -52.2065 -52.2029
   -52.1462 -52.0866 -52.0731 -52.0590 -52.0475 -52.0173 -52.0133 -52.0027
   -51.9997 -51.8474 -51.8078 -51.7844 -51.7743 -51.7496 -50.0867 -49.9923
   -49.8226 -49.7802 -49.7570 -49.7445 -49.7399 -49.7140 -49.7022 -49.6904
   -49.6841 -49.6581 -49.6544 -49.6492 -49.6324 -49.6274 -49.6128 -49.5941
   -49.5893 -49.5598 -49.5475 -49.5348 -49.5027 -49.4961 -49.4940 -49.4846
   -49.4564 -49.4482 -49.4147 -49.4068 -49.3915 -49.3713 -49.3560 -49.3266
   -49.3061 -49.2911 -13.4698  -6.7039  -5.5749  -5.2195  -5.1414  -5.1133
    -4.9525  -4.8309  -4.7996  -4.7189  -4.6824  -4.5822  -4.4276  -4.3628
    -4.3051  -4.2310  -4.1614  -4.1155  -4.0247  -3.9904  -3.8816  -3.8223
    -3.7431  -3.6943  -3.6626  -3.6495  -3.5315  -3.1214  -3.0383  -2.9577
    -2.8617  -2.8331  -2.8125  -2.7743  -2.7425  -2.7032  -2.6864  -2.6636
    -2.6323  -2.5854  -2.5437  -2.4813  -2.3513  -2.3210  -2.3025  -2.2079
    -2.1866  -2.1601  -2.0663  -2.0408  -1.9937  -1.9525  -1.9076  -1.8913
    -1.7907  -1.7675  -1.7115  -1.6937  -1.6491  -1.5406  -1.4115  -1.2989
    -1.2358  -1.1995  -1.1549  -1.1180  -1.1040  -1.0303  -1.0106  -0.9655
    -0.9448  -0.8656  -0.8164  -0.7874  -0.7673  -0.7187  -0.6421  -0.5781
    -0.4809  -0.4642  -0.4364  -0.4059  -0.3824  -0.3322  -0.2872  -0.2507
    -0.2125  -0.1831  -0.1581  -0.0975  -0.0745  -0.0519  -0.0098   0.0156
     0.0758   0.1597   0.3520   0.4097   0.7737   1.3039   1.6074

          k =-0.0404 0.0233 0.0000 ( 43792 PWs)   bands (ev):

   -84.0919 -84.0504 -83.9280 -83.8964 -83.8737 -83.8512 -83.8410 -83.8165
   -83.8093 -83.8082 -83.8005 -83.7707 -52.5087 -52.2104 -52.2065 -52.2036
   -52.1468 -52.0860 -52.0732 -52.0594 -52.0479 -52.0157 -52.0133 -52.0017
   -51.9998 -51.8474 -51.8079 -51.7843 -51.7743 -51.7497 -50.0896 -49.9886
   -49.8275 -49.7744 -49.7549 -49.7395 -49.7305 -49.7168 -49.7050 -49.6984
   -49.6826 -49.6634 -49.6536 -49.6492 -49.6315 -49.6229 -49.5981 -49.5922
   -49.5878 -49.5651 -49.5485 -49.5381 -49.5061 -49.4977 -49.4949 -49.4933
   -49.4563 -49.4481 -49.4147 -49.4055 -49.3919 -49.3731 -49.3552 -49.3248
   -49.3081 -49.2906 -13.4678  -6.4493  -5.6900  -5.1912  -5.0106  -4.9831
    -4.9188  -4.8010  -4.7443  -4.6627  -4.5426  -4.4687  -4.3837  -4.3209
    -4.2956  -4.2638  -4.1657  -4.1285  -4.0711  -4.0360  -3.9449  -3.9007
    -3.8549  -3.7914  -3.6642  -3.5852  -3.4196  -3.2052  -3.0881  -3.0005
    -2.9920  -2.9468  -2.8902  -2.8830  -2.8224  -2.8106  -2.7783  -2.7020
    -2.6686  -2.6112  -2.6047  -2.5218  -2.4613  -2.4252  -2.3530  -2.3178
    -2.3015  -2.1893  -2.1497  -2.1330  -2.1027  -2.0093  -1.9848  -1.9198
    -1.8542  -1.8442  -1.7884  -1.7801  -1.7415  -1.6935  -1.6068  -1.5114
    -1.3457  -1.2948  -1.2264  -1.1463  -1.1094  -1.0695  -1.0291  -0.9405
    -0.8986  -0.8740  -0.8267  -0.7979  -0.7758  -0.7429  -0.7171  -0.5897
    -0.5631  -0.5124  -0.4862  -0.3675  -0.3312  -0.3031  -0.2652  -0.2251
    -0.1573  -0.1350  -0.0752  -0.0377  -0.0331   0.0581   0.0807   0.2125
     0.4306   0.4814   0.8666   1.3615   1.5042   1.6169   1.7166

          k = 0.0404 0.0233 0.0000 ( 43792 PWs)   bands (ev):

   -84.0919 -84.0504 -83.9279 -83.8965 -83.8736 -83.8513 -83.8409 -83.8168
   -83.8090 -83.8081 -83.8006 -83.7707 -52.5092 -52.2106 -52.2067 -52.2044
   -52.1477 -52.0861 -52.0723 -52.0585 -52.0474 -52.0165 -52.0119 -52.0016
   -51.9992 -51.8474 -51.8079 -51.7843 -51.7743 -51.7497 -50.0901 -49.9891
   -49.8262 -49.7797 -49.7626 -49.7530 -49.7416 -49.7208 -49.7141 -49.6836
   -49.6747 -49.6518 -49.6487 -49.6432 -49.6192 -49.6151 -49.6004 -49.5907
   -49.5832 -49.5592 -49.5499 -49.5378 -49.5110 -49.5048 -49.4978 -49.4937
   -49.4644 -49.4486 -49.4142 -49.4067 -49.3915 -49.3730 -49.3552 -49.3247
   -49.3081 -49.2906 -13.4668  -6.4302  -5.6567  -5.1926  -5.1269  -4.9567
    -4.9199  -4.8387  -4.7250  -4.6061  -4.5778  -4.4861  -4.3874  -4.3325
    -4.2776  -4.2412  -4.1581  -4.1247  -4.0503  -4.0433  -3.9603  -3.9136
    -3.8567  -3.8013  -3.6643  -3.5866  -3.4060  -3.2030  -3.1101  -3.0290
    -2.9846  -2.9684  -2.8934  -2.8652  -2.8347  -2.7998  -2.7810  -2.6967
    -2.6614  -2.6159  -2.5858  -2.5311  -2.4679  -2.4098  -2.3455  -2.3021
    -2.2906  -2.1777  -2.1521  -2.1359  -2.0917  -2.0112  -1.9780  -1.8946
    -1.8540  -1.8433  -1.7885  -1.7854  -1.7607  -1.6972  -1.6060  -1.5154
    -1.3279  -1.3160  -1.2273  -1.1442  -1.1077  -1.0651  -1.0268  -0.9572
    -0.8913  -0.8882  -0.8497  -0.7949  -0.7767  -0.7315  -0.7009  -0.6140
    -0.5298  -0.5084  -0.4823  -0.3668  -0.3250  -0.3104  -0.2346  -0.1934
    -0.1468  -0.1264  -0.0822  -0.0591  -0.0361   0.0677   0.0843   0.2112
     0.4331   0.4720   0.9590   1.3687   1.4403   1.5352   1.6287

          k = 0.0606-0.0350 0.0000 ( 43744 PWs)   bands (ev):

   -84.0919 -84.0504 -83.9280 -83.8964 -83.8737 -83.8510 -83.8413 -83.8166
   -83.8092 -83.8082 -83.8005 -83.7707 -52.5087 -52.2110 -52.2065 -52.2041
   -52.1472 -52.0857 -52.0731 -52.0594 -52.0480 -52.0151 -52.0131 -52.0012
   -51.9998 -51.8474 -51.8080 -51.7843 -51.7743 -51.7497 -50.0906 -49.9868
   -49.8291 -49.7721 -49.7546 -49.7394 -49.7296 -49.7209 -49.7037 -49.6965
   -49.6820 -49.6636 -49.6522 -49.6489 -49.6298 -49.6218 -49.5932 -49.5903
   -49.5774 -49.5671 -49.5505 -49.5417 -49.5092 -49.5013 -49.4960 -49.4941
   -49.4570 -49.4483 -49.4144 -49.4050 -49.3923 -49.3743 -49.3552 -49.3241
   -49.3090 -49.2900 -13.4665  -6.1865  -5.9075  -5.1594  -5.0400  -4.9313
    -4.7548  -4.7361  -4.6425  -4.6101  -4.5171  -4.4692  -4.3712  -4.3597
    -4.3039  -4.2386  -4.2081  -4.1843  -4.1126  -4.0423  -3.9954  -3.8968
    -3.8182  -3.7766  -3.6450  -3.6391  -3.3199  -3.2624  -3.1789  -3.1107
    -3.0639  -3.0045  -2.9905  -2.9571  -2.9402  -2.8864  -2.8667  -2.7948
    -2.6616  -2.6465  -2.5569  -2.5299  -2.4600  -2.4322  -2.4100  -2.3379
    -2.2627  -2.2229  -2.0945  -2.0809  -2.0386  -1.9768  -1.9577  -1.9343
    -1.9273  -1.9061  -1.8948  -1.8536  -1.8390  -1.7275  -1.5727  -1.5516
    -1.5325  -1.3956  -1.1844  -1.1529  -1.1247  -1.0885  -1.0482  -1.0202
    -0.8654  -0.8389  -0.7796  -0.7494  -0.7327  -0.7045  -0.6601  -0.6498
    -0.6352  -0.6109  -0.5630  -0.3813  -0.3387  -0.3216  -0.2320  -0.1968
    -0.1413  -0.0379  -0.0285   0.0031   0.0488   0.1053   0.1387   0.2947
     0.3119   0.5569   0.9118   1.5511   2.0007   2.4123   2.6553

          k =-0.0606-0.0350 0.0000 ( 43744 PWs)   bands (ev):

   -84.0919 -84.0504 -83.9279 -83.8965 -83.8736 -83.8511 -83.8412 -83.8170
   -83.8088 -83.8081 -83.8007 -83.7706 -52.5094 -52.2113 -52.2069 -52.2051
   -52.1484 -52.0858 -52.0720 -52.0583 -52.0473 -52.0162 -52.0113 -52.0011
   -51.9990 -51.8474 -51.8080 -51.7843 -51.7743 -51.7497 -50.0914 -49.9874
   -49.8276 -49.7793 -49.7665 -49.7535 -49.7424 -49.7234 -49.7179 -49.6816
   -49.6697 -49.6512 -49.6471 -49.6415 -49.6092 -49.6068 -49.5925 -49.5884
   -49.5823 -49.5604 -49.5495 -49.5344 -49.5158 -49.5113 -49.5068 -49.4939
   -49.4677 -49.4484 -49.4143 -49.4066 -49.3917 -49.3741 -49.3551 -49.3239
   -49.3092 -49.2901 -13.4652  -6.0975  -5.9568  -5.1882  -5.0677  -4.9053
    -4.8426  -4.7337  -4.6561  -4.5730  -4.5371  -4.4415  -4.4170  -4.3293
    -4.3172  -4.2529  -4.2121  -4.1687  -4.1055  -4.0112  -3.9818  -3.9156
    -3.8326  -3.7711  -3.6543  -3.6163  -3.3061  -3.2602  -3.1918  -3.1284
    -3.1192  -3.0341  -2.9937  -2.9447  -2.9202  -2.8719  -2.8499  -2.7963
    -2.6384  -2.6221  -2.5657  -2.5408  -2.4592  -2.4528  -2.4142  -2.3408
    -2.2572  -2.1949  -2.0807  -2.0401  -2.0295  -1.9667  -1.9512  -1.9381
    -1.9350  -1.9086  -1.8781  -1.8587  -1.8391  -1.7539  -1.5741  -1.5650
    -1.5494  -1.3765  -1.1943  -1.1564  -1.1265  -1.0793  -1.0593  -1.0196
    -0.8746  -0.8281  -0.8017  -0.7692  -0.7280  -0.7037  -0.6597  -0.6235
    -0.6151  -0.5981  -0.5718  -0.3866  -0.3375  -0.2903  -0.2440  -0.1588
    -0.1401  -0.0347  -0.0301  -0.0141   0.0827   0.1286   0.1529   0.2634
     0.3022   0.5545   1.0125   1.4619   1.9235   2.4218   2.5330

          k =-0.0202 0.0350 0.0000 ( 43807 PWs)   bands (ev):

   -84.0919 -84.0503 -83.9280 -83.8965 -83.8736 -83.8516 -83.8404 -83.8167
   -83.8094 -83.8081 -83.8006 -83.7707 -52.5089 -52.2095 -52.2069 -52.2033
   -52.1463 -52.0866 -52.0734 -52.0590 -52.0476 -52.0160 -52.0131 -52.0028
   -51.9996 -51.8474 -51.8078 -51.7844 -51.7743 -51.7496 -50.0865 -49.9918
   -49.8277 -49.7808 -49.7548 -49.7441 -49.7371 -49.7088 -49.7035 -49.6890
   -49.6820 -49.6672 -49.6553 -49.6470 -49.6320 -49.6207 -49.6075 -49.5916
   -49.5879 -49.5625 -49.5467 -49.5385 -49.5049 -49.5006 -49.4941 -49.4846
   -49.4605 -49.4484 -49.4146 -49.4065 -49.3916 -49.3716 -49.3561 -49.3265
   -49.3060 -49.2911 -13.4676  -6.5494  -5.5533  -5.2592  -5.1416  -5.0071
    -4.8608  -4.8271  -4.7729  -4.6925  -4.5917  -4.4722  -4.3788  -4.3309
    -4.2552  -4.2269  -4.1955  -4.1344  -4.0833  -4.0456  -3.9075  -3.8713
    -3.8194  -3.7671  -3.6944  -3.5438  -3.4633  -3.1714  -3.0731  -3.0175
    -2.9449  -2.9127  -2.8548  -2.8333  -2.7739  -2.7609  -2.7078  -2.7014
    -2.6719  -2.5863  -2.5225  -2.5114  -2.4594  -2.3702  -2.3547  -2.3348
    -2.2545  -2.2318  -2.2160  -2.1329  -2.1008  -2.0529  -2.0018  -1.9802
    -1.8947  -1.7855  -1.7802  -1.7354  -1.6901  -1.6775  -1.4362  -1.3730
    -1.3382  -1.2802  -1.2660  -1.2231  -1.1404  -1.0636  -1.0014  -0.9566
    -0.9386  -0.8876  -0.8591  -0.8148  -0.8080  -0.7229  -0.6239  -0.5451
    -0.5335  -0.4662  -0.4135  -0.4016  -0.3769  -0.2534  -0.2254  -0.1900
    -0.1542  -0.1497  -0.1143  -0.0901  -0.0306  -0.0177   0.1606   0.1928
     0.2972   0.5468   0.7099   1.0372   1.1674   1.3908   1.8052

          k = 0.0404 0.0000 0.0000 ( 43807 PWs)   bands (ev):

   -84.0919 -84.0504 -83.9280 -83.8964 -83.8736 -83.8513 -83.8409 -83.8166
   -83.8092 -83.8082 -83.8006 -83.7707 -52.5089 -52.2102 -52.2065 -52.2037
   -52.1471 -52.0860 -52.0728 -52.0591 -52.0477 -52.0164 -52.0129 -52.0017
   -51.9997 -51.8474 -51.8079 -51.7843 -51.7743 -51.7497 -50.0898 -49.9891
   -49.8254 -49.7767 -49.7569 -49.7447 -49.7408 -49.7163 -49.7089 -49.6890
   -49.6834 -49.6567 -49.6517 -49.6486 -49.6289 -49.6226 -49.5988 -49.5918
   -49.5889 -49.5621 -49.5500 -49.5363 -49.5058 -49.4991 -49.4955 -49.4932
   -49.4574 -49.4482 -49.4143 -49.4060 -49.3918 -49.3732 -49.3552 -49.3249
   -49.3080 -49.2904 -13.4681  -6.5163  -5.6281  -5.1822  -5.1137  -4.9955
    -4.8893  -4.8267  -4.7826  -4.7122  -4.6471  -4.4622  -4.3606  -4.3065
    -4.2740  -4.2360  -4.2005  -4.1733  -4.0493  -4.0090  -3.9363  -3.8824
    -3.8336  -3.7471  -3.6666  -3.5329  -3.5034  -3.1743  -3.1095  -2.9617
    -2.9377  -2.9069  -2.8807  -2.8409  -2.7950  -2.7557  -2.7193  -2.6890
    -2.6637  -2.6070  -2.5274  -2.5179  -2.4264  -2.3702  -2.3510  -2.3099
    -2.2571  -2.2446  -2.2013  -2.1361  -2.1083  -2.0532  -1.9990  -1.9851
    -1.8870  -1.7769  -1.7650  -1.7455  -1.6941  -1.6531  -1.4667  -1.3896
    -1.3327  -1.2770  -1.2650  -1.2284  -1.0976  -1.0666  -1.0204  -0.9667
    -0.9381  -0.8846  -0.8744  -0.8070  -0.7930  -0.7040  -0.6053  -0.5844
    -0.5266  -0.4723  -0.4254  -0.4010  -0.3726  -0.2469  -0.2194  -0.1839
    -0.1722  -0.1456  -0.1072  -0.0843  -0.0509  -0.0231   0.1308   0.1925
     0.3868   0.4927   0.7444   0.9728   1.2289   1.3417   1.7954

          k =-0.0202-0.0816 0.0000 ( 43761 PWs)   bands (ev):

   -84.0919 -84.0503 -83.9279 -83.8965 -83.8736 -83.8516 -83.8404 -83.8169
   -83.8092 -83.8080 -83.8007 -83.7706 -52.5093 -52.2101 -52.2075 -52.2044
   -52.1470 -52.0866 -52.0730 -52.0584 -52.0473 -52.0156 -52.0118 -52.0026
   -51.9992 -51.8474 -51.8078 -51.7844 -51.7743 -51.7496 -50.0863 -49.9917
   -49.8310 -49.7851 -49.7578 -49.7531 -49.7372 -49.7162 -49.7040 -49.6814
   -49.6716 -49.6637 -49.6509 -49.6447 -49.6308 -49.6086 -49.5987 -49.5849
   -49.5803 -49.5612 -49.5523 -49.5410 -49.5135 -49.5058 -49.4940 -49.4860
   -49.4718 -49.4488 -49.4141 -49.4063 -49.3913 -49.3717 -49.3560 -49.3262
   -49.3058 -49.2907 -13.4649  -6.3082  -5.5873  -5.3626  -5.0673  -4.9533
    -4.8641  -4.7722  -4.6714  -4.6009  -4.5542  -4.4557  -4.3558  -4.3029
    -4.2650  -4.2472  -4.1654  -4.1141  -4.0637  -4.0294  -3.9808  -3.9087
    -3.8781  -3.8218  -3.6676  -3.4939  -3.3251  -3.2464  -3.1808  -3.1241
    -3.0259  -2.9916  -2.9619  -2.9173  -2.8845  -2.8538  -2.8069  -2.7694
    -2.6912  -2.6547  -2.5977  -2.5394  -2.5043  -2.4708  -2.4033  -2.3625
    -2.3368  -2.2657  -2.2054  -2.1753  -2.1152  -2.0960  -2.0332  -1.9833
    -1.9736  -1.8978  -1.8328  -1.7664  -1.7207  -1.6830  -1.5524  -1.4265
    -1.4035  -1.3285  -1.2548  -1.2278  -1.2058  -1.1038  -1.0034  -0.9478
    -0.9199  -0.8982  -0.8378  -0.7642  -0.7534  -0.7199  -0.7045  -0.6649
    -0.6128  -0.5239  -0.4196  -0.3751  -0.3209  -0.2809  -0.2309  -0.1662
    -0.1513  -0.0924  -0.0001   0.0412   0.0824   0.1216   0.1732   0.3035
     0.3605   0.6723   0.8722   1.3222   1.8285   2.3087   2.5109

          k = 0.0808-0.0233 0.0000 ( 43761 PWs)   bands (ev):

   -84.0919 -84.0504 -83.9280 -83.8965 -83.8736 -83.8512 -83.8410 -83.8167
   -83.8092 -83.8081 -83.8006 -83.7707 -52.5089 -52.2107 -52.2068 -52.2042
   -52.1471 -52.0860 -52.0731 -52.0591 -52.0478 -52.0151 -52.0128 -52.0017
   -51.9995 -51.8474 -51.8079 -51.7843 -51.7743 -51.7497 -50.0895 -49.9884
   -49.8299 -49.7770 -49.7545 -49.7441 -49.7373 -49.7165 -49.7062 -49.6882
   -49.6808 -49.6615 -49.6526 -49.6481 -49.6292 -49.6172 -49.5935 -49.5873
   -49.5836 -49.5664 -49.5490 -49.5422 -49.5104 -49.5008 -49.4948 -49.4937
   -49.4611 -49.4482 -49.4143 -49.4055 -49.3917 -49.3733 -49.3552 -49.3244
   -49.3078 -49.2902 -13.4660  -6.2582  -5.7430  -5.2160  -5.0684  -4.9660
    -4.8866  -4.7054  -4.6540  -4.6207  -4.5648  -4.4374  -4.3680  -4.3378
    -4.2823  -4.2573  -4.1940  -4.1265  -4.0867  -4.0061  -3.9679  -3.9220
    -3.8647  -3.7587  -3.6821  -3.4805  -3.3534  -3.2528  -3.1589  -3.1048
    -3.0366  -2.9937  -2.9648  -2.9421  -2.8748  -2.8410  -2.8103  -2.7672
    -2.7104  -2.6614  -2.6022  -2.5692  -2.4917  -2.4587  -2.4058  -2.3628
    -2.3208  -2.2606  -2.2091  -2.1856  -2.1289  -2.0703  -2.0407  -1.9853
    -1.9565  -1.8868  -1.8428  -1.7637  -1.7360  -1.6988  -1.5513  -1.4340
    -1.3932  -1.3013  -1.2646  -1.2371  -1.2076  -1.1129  -1.0069  -0.9488
    -0.9141  -0.8866  -0.8406  -0.7626  -0.7323  -0.7207  -0.6937  -0.6777
    -0.6114  -0.5226  -0.4110  -0.3719  -0.3268  -0.2715  -0.2478  -0.1905
    -0.1673  -0.1061   0.0011   0.0396   0.0673   0.1120   0.1763   0.3560
     0.3904   0.6001   0.7908   1.5249   1.6875   2.3340   2.5415

          k =-0.0606-0.0583 0.0000 ( 43761 PWs)   bands (ev):

   -84.0919 -84.0504 -83.9279 -83.8965 -83.8736 -83.8511 -83.8412 -83.8169
   -83.8089 -83.8081 -83.8006 -83.7707 -52.5092 -52.2112 -52.2068 -52.2049
   -52.1481 -52.0858 -52.0723 -52.0585 -52.0475 -52.0159 -52.0117 -52.0012
   -51.9992 -51.8474 -51.8080 -51.7843 -51.7743 -51.7497 -50.0913 -49.9875
   -49.8282 -49.7785 -49.7628 -49.7525 -49.7418 -49.7197 -49.7174 -49.6811
   -49.6738 -49.6514 -49.6501 -49.6446 -49.6188 -49.6121 -49.5891 -49.5867
   -49.5815 -49.5600 -49.5538 -49.5384 -49.5125 -49.5108 -49.5007 -49.4937
   -49.4654 -49.4483 -49.4140 -49.4060 -49.3914 -49.3737 -49.3548 -49.3234
   -49.3089 -49.2900 -13.4656  -6.1812  -5.8247  -5.2000  -5.0921  -4.9218
    -4.8466  -4.7673  -4.6835  -4.6265  -4.5527  -4.4710  -4.3907  -4.3462
    -4.2941  -4.2451  -4.1478  -4.1068  -4.0803  -4.0441  -3.9375  -3.9170
    -3.8843  -3.8172  -3.6247  -3.4862  -3.3308  -3.2622  -3.1887  -3.1262
    -3.0249  -3.0145  -2.9957  -2.9237  -2.8679  -2.8406  -2.8077  -2.7637
    -2.6782  -2.6523  -2.6030  -2.5235  -2.4874  -2.4690  -2.4080  -2.3757
    -2.3274  -2.2618  -2.2071  -2.1636  -2.1153  -2.0979  -2.0408  -1.9914
    -1.9559  -1.8769  -1.8296  -1.7644  -1.7338  -1.6922  -1.5576  -1.4299
    -1.4120  -1.3253  -1.2619  -1.2286  -1.2077  -1.0925  -1.0029  -0.9607
    -0.9295  -0.8829  -0.8321  -0.7659  -0.7354  -0.7125  -0.6919  -0.6643
    -0.6092  -0.5233  -0.4099  -0.3731  -0.3375  -0.2828  -0.2509  -0.1750
    -0.1403  -0.0901  -0.0201   0.0405   0.0638   0.1323   0.1606   0.3415
     0.3918   0.6708   0.8001   1.3513   1.8065   2.3549   2.4905

          k = 0.0808 0.0233 0.0000 ( 43761 PWs)   bands (ev):

   -84.0919 -84.0504 -83.9279 -83.8966 -83.8736 -83.8513 -83.8409 -83.8170
   -83.8089 -83.8080 -83.8007 -83.7706 -52.5094 -52.2109 -52.2070 -52.2050
   -52.1480 -52.0861 -52.0722 -52.0582 -52.0473 -52.0160 -52.0114 -52.0016
   -51.9990 -51.8474 -51.8079 -51.7843 -51.7743 -51.7497 -50.0900 -49.9889
   -49.8289 -49.7821 -49.7653 -49.7541 -49.7413 -49.7224 -49.7149 -49.6819
   -49.6700 -49.6512 -49.6471 -49.6428 -49.6179 -49.6051 -49.5929 -49.5874
   -49.5811 -49.5599 -49.5547 -49.5365 -49.5128 -49.5106 -49.5001 -49.4939
   -49.4703 -49.4485 -49.4141 -49.4064 -49.3913 -49.3730 -49.3551 -49.3244
   -49.3078 -49.2902 -13.4650  -6.2221  -5.7452  -5.2256  -5.1017  -4.9797
    -4.8480  -4.7975  -4.6712  -4.5693  -4.5525  -4.4370  -4.3635  -4.3381
    -4.3173  -4.2509  -4.1883  -4.1223  -4.0891  -4.0371  -3.9614  -3.9126
    -3.8516  -3.7468  -3.6850  -3.4842  -3.3473  -3.2355  -3.1847  -3.1416
    -3.0474  -3.0033  -2.9513  -2.9124  -2.8909  -2.8332  -2.7963  -2.7714
    -2.6942  -2.6558  -2.5997  -2.5534  -2.5109  -2.4443  -2.3985  -2.3689
    -2.3320  -2.2494  -2.1879  -2.1742  -2.1192  -2.0904  -2.0384  -1.9892
    -1.9604  -1.8914  -1.8417  -1.7625  -1.7298  -1.6971  -1.5610  -1.4253
    -1.3957  -1.3037  -1.2662  -1.2379  -1.2038  -1.1128  -0.9976  -0.9541
    -0.9248  -0.9039  -0.8393  -0.7609  -0.7343  -0.7175  -0.7001  -0.6634
    -0.6139  -0.5042  -0.4022  -0.3631  -0.3486  -0.2680  -0.2309  -0.1868
    -0.1494  -0.1085  -0.0214   0.0336   0.0883   0.1250   0.1610   0.3520
     0.4018   0.6281   0.8524   1.4638   1.6185   2.3221   2.5230

          k =-0.0606 0.0583 0.0000 ( 43761 PWs)   bands (ev):

   -84.0919 -84.0504 -83.9280 -83.8964 -83.8736 -83.8510 -83.8413 -83.8167
   -83.8091 -83.8082 -83.8006 -83.7707 -52.5089 -52.2110 -52.2066 -52.2044
   -52.1475 -52.0857 -52.0729 -52.0591 -52.0479 -52.0154 -52.0126 -52.0012
   -51.9996 -51.8474 -51.8080 -51.7843 -51.7743 -51.7497 -50.0909 -49.9872
   -49.8289 -49.7751 -49.7558 -49.7444 -49.7397 -49.7191 -49.7071 -49.6880
   -49.6811 -49.6582 -49.6516 -49.6485 -49.6274 -49.6195 -49.5901 -49.5890
   -49.5783 -49.5658 -49.5521 -49.5416 -49.5091 -49.5046 -49.4975 -49.4937
   -49.4597 -49.4481 -49.4142 -49.4053 -49.3917 -49.3738 -49.3549 -49.3234
   -49.3089 -49.2900 -13.4662  -6.2100  -5.8212  -5.1663  -5.0436  -4.9696
    -4.8868  -4.7383  -4.6394  -4.6328  -4.5639  -4.4397  -4.3800  -4.3427
    -4.2932  -4.2342  -4.1935  -4.1306  -4.1102  -4.0239  -3.9666  -3.9077
    -3.8528  -3.7941  -3.6441  -3.4864  -3.3354  -3.2717  -3.1595  -3.1002
    -3.0251  -3.0068  -2.9925  -2.9310  -2.8614  -2.8462  -2.8087  -2.7485
    -2.6924  -2.6689  -2.6273  -2.5392  -2.4922  -2.4637  -2.4083  -2.3707
    -2.3323  -2.2568  -2.2140  -2.1818  -2.1228  -2.0719  -2.0439  -1.9875
    -1.9508  -1.8709  -1.8338  -1.7728  -1.7388  -1.6986  -1.5539  -1.4358
    -1.4067  -1.3021  -1.2660  -1.2320  -1.2064  -1.0967  -1.0125  -0.9606
    -0.9126  -0.8738  -0.8412  -0.7646  -0.7362  -0.7247  -0.6836  -0.6688
    -0.6150  -0.5129  -0.4266  -0.3761  -0.3363  -0.2824  -0.2569  -0.1849
    -0.1606  -0.0625  -0.0124   0.0153   0.0642   0.1401   0.1568   0.3462
     0.4381   0.5809   0.7565   1.4867   1.7639   2.3338   2.5951

     the Fermi energy is     0.0601 ev

!    total energy              =   -7409.72591276 Ry
     Harris-Foulkes estimate   =   -7409.72591187 Ry
     estimated scf accuracy    <       0.00000002 Ry

     The total energy is the sum of the following terms:

     one-electron contribution =  -28408.24371915 Ry
     hartree contribution      =   14220.31670908 Ry
     xc contribution           =    -712.32076952 Ry
     ewald contribution        =   10553.32117573 Ry
     one-center paw contrib.   =   -3062.71908636 Ry
     smearing contrib. (-TS)   =      -0.08022253 Ry

     convergence has been achieved in  71 iterations

     Forces acting on atoms (Ry/au):


     negative rho (up, down):  1.078E+00 0.000E+00
     atom    1 type  1   force =    -0.01099041   -0.00061278   -0.00655443
     atom    2 type  2   force =     0.00299549   -0.00151464   -0.01896456
     atom    3 type  1   force =     0.00542604   -0.01051962   -0.02549838
     atom    4 type  2   force =    -0.00281625    0.00243860   -0.01982602
     atom    5 type  2   force =    -0.00186150   -0.00054233   -0.02758006
     atom    6 type  2   force =     0.00483732   -0.00420852   -0.03110769
     atom    7 type  1   force =    -0.00651858    0.00858051   -0.01125984
     atom    8 type  2   force =    -0.00199149    0.00035236   -0.02045927
     atom    9 type  1   force =     0.00975592    0.00446444   -0.00796337
     atom   10 type  2   force =     0.00855651   -0.00586983    0.01796882
     atom   11 type  1   force =    -0.00356079   -0.00650531    0.00509705
     atom   12 type  2   force =    -0.00539488   -0.01067780    0.01772696
     atom   13 type  2   force =     0.00338573   -0.00313215    0.01380655
     atom   14 type  2   force =    -0.08661815   -0.05114139    0.00146611
     atom   15 type  2   force =     0.08147175   -0.04668482    0.00068894
     atom   16 type  2   force =    -0.00459921    0.00321030    0.01350298
     atom   17 type  1   force =     0.00132194    0.12466179   -0.00881529
     atom   18 type  2   force =     0.00380952    0.00760700    0.01812852
     atom   19 type  3   force =     0.00127794   -0.01236844   -0.64209920
     atom   20 type  3   force =     0.00151309    0.00246266    0.73174219

     Total force =     0.994286     Total SCF correction =     0.000583
 !ASE

     Writing output data file calc.save
     Check: negative starting charge=   -1.119292
     NEW-OLD atomic charge density approx. for the potential

     Check: negative/imaginary core charge=   -0.000001    0.000000
     Check: negative starting charge=   -1.119737

     negative rho (up, down):  1.077E+00 0.000E+00

     total cpu time spent up to now is     7031.5 secs

     per-process dynamical memory:    99.1 Mb

     Self-consistent Calculation

     iteration #  1     ecut=    44.10 Ry     beta=0.05
     CG style diagonalization
     ethr =  2.40E-11,  avg # of iterations = 42.4

     negative rho (up, down):  1.077E+00 0.000E+00

     total cpu time spent up to now is     8885.5 secs

     total energy              =   -7409.91822666 Ry
     Harris-Foulkes estimate   =   -7409.94375522 Ry
     estimated scf accuracy    <       0.03622602 Ry

     iteration #  2     ecut=    44.10 Ry     beta=0.05
     CG style diagonalization
     ethr =  1.15E-05,  avg # of iterations =  3.0

     negative rho (up, down):  1.078E+00 0.000E+00

     total cpu time spent up to now is     9022.2 secs

     total energy              =   -7409.90611359 Ry
     Harris-Foulkes estimate   =   -7409.91823475 Ry
     estimated scf accuracy    <       0.03310362 Ry

     iteration #  3     ecut=    44.10 Ry     beta=0.05
     CG style diagonalization
     ethr =  1.05E-05,  avg # of iterations =  3.1

     negative rho (up, down):  1.078E+00 0.000E+00

     total cpu time spent up to now is     9203.9 secs

     total energy              =   -7409.90894149 Ry
     Harris-Foulkes estimate   =   -7409.90917154 Ry
     estimated scf accuracy    <       0.00230156 Ry

     iteration #  4     ecut=    44.10 Ry     beta=0.05
     CG style diagonalization
     ethr =  7.33E-07,  avg # of iterations =  3.3

     negative rho (up, down):  1.078E+00 0.000E+00

     total cpu time spent up to now is     9316.3 secs

     total energy              =   -7409.90910050 Ry
     Harris-Foulkes estimate   =   -7409.90916700 Ry
     estimated scf accuracy    <       0.00073741 Ry

     iteration #  5     ecut=    44.10 Ry     beta=0.05
     CG style diagonalization
     ethr =  2.35E-07,  avg # of iterations =  3.1

     negative rho (up, down):  1.078E+00 0.000E+00

     total cpu time spent up to now is     9451.9 secs

     total energy              =   -7409.90912618 Ry
     Harris-Foulkes estimate   =   -7409.90914636 Ry
     estimated scf accuracy    <       0.00033729 Ry

     iteration #  6     ecut=    44.10 Ry     beta=0.05
     CG style diagonalization
     ethr =  1.07E-07,  avg # of iterations =  3.1

     negative rho (up, down):  1.079E+00 0.000E+00

     total cpu time spent up to now is     9542.0 secs

     total energy              =   -7409.90910241 Ry
     Harris-Foulkes estimate   =   -7409.90914192 Ry
     estimated scf accuracy    <       0.00023516 Ry

     iteration #  7     ecut=    44.10 Ry     beta=0.05
     CG style diagonalization
     ethr =  7.49E-08,  avg # of iterations =  3.0

     negative rho (up, down):  1.079E+00 0.000E+00

     total cpu time spent up to now is     9626.5 secs

     total energy              =   -7409.90910173 Ry
     Harris-Foulkes estimate   =   -7409.90911280 Ry
     estimated scf accuracy    <       0.00010704 Ry

     iteration #  8     ecut=    44.10 Ry     beta=0.05
     CG style diagonalization
     ethr =  3.41E-08,  avg # of iterations =  3.1

     negative rho (up, down):  1.079E+00 0.000E+00

     total cpu time spent up to now is     9713.6 secs

     total energy              =   -7409.90909571 Ry
     Harris-Foulkes estimate   =   -7409.90910732 Ry
     estimated scf accuracy    <       0.00006695 Ry

     iteration #  9     ecut=    44.10 Ry     beta=0.05
     CG style diagonalization
     ethr =  2.13E-08,  avg # of iterations =  3.1

     negative rho (up, down):  1.079E+00 0.000E+00

     total cpu time spent up to now is     9802.0 secs

     total energy              =   -7409.90909933 Ry
     Harris-Foulkes estimate   =   -7409.90910118 Ry
     estimated scf accuracy    <       0.00003033 Ry

     iteration # 10     ecut=    44.10 Ry     beta=0.05
     CG style diagonalization
     ethr =  9.66E-09,  avg # of iterations =  3.2

     negative rho (up, down):  1.079E+00 0.000E+00

     total cpu time spent up to now is     9930.4 secs

     total energy              =   -7409.90910212 Ry
     Harris-Foulkes estimate   =   -7409.90910186 Ry
     estimated scf accuracy    <       0.00001841 Ry

     iteration # 11     ecut=    44.10 Ry     beta=0.05
     CG style diagonalization
     ethr =  5.86E-09,  avg # of iterations =  3.0

     negative rho (up, down):  1.079E+00 0.000E+00

     total cpu time spent up to now is    10015.1 secs

     total energy              =   -7409.90910135 Ry
     Harris-Foulkes estimate   =   -7409.90910422 Ry
     estimated scf accuracy    <       0.00001974 Ry

     iteration # 12     ecut=    44.10 Ry     beta=0.05
     CG style diagonalization
     ethr =  5.86E-09,  avg # of iterations =  3.0

     negative rho (up, down):  1.079E+00 0.000E+00

     total cpu time spent up to now is    10099.2 secs

     total energy              =   -7409.90910354 Ry
     Harris-Foulkes estimate   =   -7409.90910319 Ry
     estimated scf accuracy    <       0.00001035 Ry

     iteration # 13     ecut=    44.10 Ry     beta=0.05
     CG style diagonalization
     ethr =  3.29E-09,  avg # of iterations =  3.1

     negative rho (up, down):  1.079E+00 0.000E+00

     total cpu time spent up to now is    10187.0 secs

     total energy              =   -7409.90910428 Ry
     Harris-Foulkes estimate   =   -7409.90910428 Ry
     estimated scf accuracy    <       0.00000769 Ry

     iteration # 14     ecut=    44.10 Ry     beta=0.05
     CG style diagonalization
     ethr =  2.45E-09,  avg # of iterations =  3.0

     negative rho (up, down):  1.079E+00 0.000E+00

     total cpu time spent up to now is    10270.2 secs

     total energy              =   -7409.90910565 Ry
     Harris-Foulkes estimate   =   -7409.90910471 Ry
     estimated scf accuracy    <       0.00000590 Ry

     iteration # 15     ecut=    44.10 Ry     beta=0.05
     CG style diagonalization
     ethr =  1.88E-09,  avg # of iterations =  3.0

[...]
    -4.1947  -4.1756  -4.0906  -4.0256  -3.9965  -3.9440  -3.8720  -3.8083
    -3.7661  -3.6666  -3.5736  -3.4808  -3.4153  -3.2729  -3.1607  -3.0651
    -2.9888  -2.9530  -2.9301  -2.8501  -2.8027  -2.7720  -2.7484  -2.6733
    -2.6500  -2.5760  -2.5484  -2.4994  -2.4732  -2.3872  -2.3425  -2.2928
    -2.2603  -2.2013  -2.1329  -2.0695  -2.0373  -1.9798  -1.9641  -1.9390
    -1.8704  -1.7830  -1.7316  -1.7170  -1.6778  -1.6354  -1.5702  -1.5311
    -1.3687  -1.3267  -1.2889  -1.2356  -1.1799  -1.1098  -1.0768  -1.0120
    -0.9878  -0.9407  -0.8757  -0.8085  -0.7913  -0.7712  -0.7347  -0.6897
    -0.6317  -0.5898  -0.5287  -0.4876  -0.4464  -0.3754  -0.2927  -0.2667
    -0.2411  -0.1930  -0.1462  -0.1170  -0.0704  -0.0132   0.0257   0.1949
     0.4114   0.4316   0.8906   1.1297   1.4826   1.5389   1.6171

          k = 0.0404 0.0233 0.0000 ( 43792 PWs)   bands (ev):

   -84.0033 -83.9096 -83.8974 -83.8855 -83.8787 -83.8389 -83.8098 -83.8066
   -83.7988 -83.7943 -83.7659 -83.7608 -52.6903 -52.5944 -52.4235 -52.2885
   -52.2825 -52.2297 -52.2064 -52.1939 -52.1385 -52.1187 -52.0724 -52.0542
   -52.0404 -51.9410 -51.8553 -51.8406 -51.8022 -51.7830 -49.8874 -49.7993
   -49.7639 -49.7594 -49.7408 -49.7246 -49.7116 -49.6893 -49.6783 -49.6687
   -49.6651 -49.6321 -49.6228 -49.6175 -49.5955 -49.5868 -49.5834 -49.5685
   -49.5640 -49.5399 -49.5364 -49.5120 -49.5024 -49.4792 -49.4694 -49.4584
   -49.4419 -49.4155 -49.3830 -49.3575 -49.3503 -49.3301 -49.3203 -49.2863
   -49.2619 -49.2330  -7.2847  -6.2680  -5.6688  -5.3769  -5.0743  -4.9893
    -4.8811  -4.7569  -4.6402  -4.5607  -4.4660  -4.4156  -4.3249  -4.2590
    -4.1788  -4.1351  -4.0840  -4.0507  -3.9838  -3.9294  -3.8589  -3.8221
    -3.7439  -3.6765  -3.5736  -3.4888  -3.4166  -3.2806  -3.1804  -3.0399
    -2.9930  -2.9287  -2.9091  -2.8459  -2.7945  -2.7579  -2.7292  -2.6855
    -2.6412  -2.6047  -2.5771  -2.5210  -2.4266  -2.3563  -2.3271  -2.2845
    -2.2429  -2.2119  -2.1161  -2.0925  -2.0529  -1.9836  -1.9360  -1.9224
    -1.8357  -1.7551  -1.7435  -1.7257  -1.6774  -1.6494  -1.5972  -1.5445
    -1.3772  -1.3178  -1.2949  -1.2086  -1.1867  -1.0840  -1.0620  -1.0363
    -0.9838  -0.9591  -0.8793  -0.8313  -0.8045  -0.7677  -0.7362  -0.6983
    -0.6562  -0.5816  -0.5409  -0.4226  -0.3824  -0.3523  -0.3245  -0.2775
    -0.2255  -0.1909  -0.1360  -0.1149  -0.0817  -0.0266   0.0193   0.1916
     0.4228   0.4378   0.9289   1.1209   1.4271   1.4880   1.6099

          k = 0.0606-0.0350 0.0000 ( 43744 PWs)   bands (ev):

   -84.0032 -83.9099 -83.8973 -83.8855 -83.8787 -83.8388 -83.8098 -83.8062
   -83.7991 -83.7944 -83.7658 -83.7608 -52.6901 -52.5941 -52.4234 -52.2894
   -52.2820 -52.2295 -52.2066 -52.1940 -52.1383 -52.1193 -52.0710 -52.0558
   -52.0401 -51.9410 -51.8554 -51.8406 -51.8021 -51.7830 -49.8898 -49.7991
   -49.7607 -49.7422 -49.7309 -49.7181 -49.7015 -49.6909 -49.6815 -49.6733
   -49.6639 -49.6374 -49.6319 -49.6253 -49.6141 -49.6104 -49.5884 -49.5605
   -49.5396 -49.5376 -49.5267 -49.5165 -49.5123 -49.4723 -49.4671 -49.4578
   -49.4414 -49.4159 -49.3821 -49.3573 -49.3511 -49.3304 -49.3202 -49.2864
   -49.2620 -49.2330  -7.2766  -6.1210  -5.7527  -5.3811  -5.0822  -4.8237
    -4.7619  -4.6636  -4.5754  -4.4793  -4.4609  -4.3451  -4.3322  -4.3039
    -4.2255  -4.1433  -4.1038  -4.0868  -3.9945  -3.9766  -3.9240  -3.7732
    -3.7532  -3.6223  -3.5961  -3.5192  -3.4342  -3.2740  -3.2120  -3.1159
    -3.0719  -3.0436  -2.9747  -2.9529  -2.9184  -2.8670  -2.8508  -2.7821
    -2.6577  -2.6115  -2.5789  -2.5610  -2.4320  -2.3944  -2.2787  -2.2686
    -2.2036  -2.1612  -2.1221  -2.0545  -2.0345  -1.9401  -1.9310  -1.9121
    -1.8795  -1.8381  -1.8247  -1.8184  -1.7859  -1.6996  -1.6029  -1.5396
    -1.4951  -1.4473  -1.2997  -1.2509  -1.2428  -1.1107  -1.0600  -1.0339
    -0.9348  -0.8878  -0.8616  -0.8181  -0.7895  -0.7448  -0.7346  -0.7258
    -0.6905  -0.6365  -0.6141  -0.5049  -0.4808  -0.3297  -0.3132  -0.2394
    -0.1825  -0.1668  -0.1116  -0.0177  -0.0106   0.0553   0.0716   0.2198
     0.2892   0.5414   0.9743   1.2025   2.0612   2.3408   2.5177

          k =-0.0606-0.0350 0.0000 ( 43744 PWs)   bands (ev):

   -84.0032 -83.9097 -83.8973 -83.8855 -83.8787 -83.8389 -83.8095 -83.8068
   -83.7989 -83.7943 -83.7659 -83.7607 -52.6903 -52.5944 -52.4235 -52.2889
   -52.2832 -52.2301 -52.2065 -52.1937 -52.1385 -52.1181 -52.0721 -52.0535
   -52.0401 -51.9410 -51.8554 -51.8406 -51.8021 -51.7831 -49.8911 -49.7988
   -49.7648 -49.7598 -49.7424 -49.7214 -49.7117 -49.6894 -49.6816 -49.6696
   -49.6654 -49.6274 -49.6177 -49.6144 -49.5874 -49.5861 -49.5793 -49.5653
   -49.5507 -49.5416 -49.5360 -49.5184 -49.5080 -49.4911 -49.4714 -49.4583
   -49.4422 -49.4158 -49.3831 -49.3574 -49.3509 -49.3303 -49.3204 -49.2864
   -49.2617 -49.2333  -7.2188  -6.0673  -5.8653  -5.3800  -5.0941  -4.9566
    -4.7901  -4.6269  -4.5681  -4.4745  -4.4393  -4.3990  -4.3289  -4.3199
    -4.2346  -4.1582  -4.1262  -4.0924  -3.9787  -3.9298  -3.8845  -3.8085
    -3.7069  -3.6202  -3.5608  -3.5309  -3.4332  -3.2600  -3.2138  -3.1080
    -3.0844  -3.0520  -2.9771  -2.9216  -2.9011  -2.8459  -2.8116  -2.7892
    -2.6777  -2.6551  -2.5922  -2.5483  -2.4474  -2.3851  -2.3098  -2.2462
    -2.1703  -2.1320  -2.1083  -2.0278  -1.9924  -1.9481  -1.9229  -1.8989
    -1.8774  -1.8647  -1.8125  -1.7930  -1.7525  -1.7200  -1.6651  -1.5799
    -1.4869  -1.4455  -1.3061  -1.2463  -1.2055  -1.1091  -1.0695  -1.0361
    -0.9223  -0.8996  -0.8761  -0.8401  -0.8026  -0.7793  -0.7302  -0.7207
    -0.6654  -0.6522  -0.6240  -0.4548  -0.3978  -0.3686  -0.2633  -0.2575
    -0.1975  -0.1341  -0.0959  -0.0455  -0.0233   0.0477   0.1068   0.1867
     0.2840   0.5377   1.0281   1.1996   2.0164   2.2679   2.5591

          k =-0.0202 0.0350 0.0000 ( 43807 PWs)   bands (ev):

   -84.0033 -83.9095 -83.8976 -83.8855 -83.8787 -83.8389 -83.8105 -83.8058
   -83.7986 -83.7944 -83.7659 -83.7609 -52.6902 -52.5942 -52.4234 -52.2887
   -52.2811 -52.2290 -52.2062 -52.1942 -52.1382 -52.1202 -52.0719 -52.0555
   -52.0410 -51.9409 -51.8551 -51.8408 -51.8022 -51.7830 -49.8781 -49.8009
   -49.7776 -49.7483 -49.7339 -49.7281 -49.7061 -49.6907 -49.6695 -49.6662
   -49.6614 -49.6356 -49.6300 -49.6185 -49.6121 -49.6044 -49.5994 -49.5713
   -49.5599 -49.5393 -49.5275 -49.5120 -49.4976 -49.4700 -49.4622 -49.4579
   -49.4413 -49.4158 -49.3830 -49.3576 -49.3501 -49.3301 -49.3202 -49.2863
   -49.2622 -49.2326  -7.3232  -6.3730  -5.5432  -5.3428  -5.1254  -5.0889
    -4.7886  -4.7268  -4.6956  -4.6028  -4.5222  -4.4544  -4.3023  -4.2519
    -4.1873  -4.1588  -4.0520  -4.0388  -3.9803  -3.9472  -3.8513  -3.7649
    -3.7005  -3.6552  -3.5973  -3.4633  -3.3980  -3.2871  -3.1702  -3.0384
    -2.9826  -2.9094  -2.8555  -2.8361  -2.7584  -2.7139  -2.7013  -2.6769
    -2.6190  -2.5530  -2.4916  -2.4582  -2.3959  -2.3928  -2.3080  -2.3028
    -2.2715  -2.2247  -2.1558  -2.1092  -2.0723  -2.0254  -1.9697  -1.9134
    -1.8668  -1.8262  -1.7316  -1.7060  -1.6499  -1.5858  -1.5026  -1.4005
    -1.3335  -1.2802  -1.2554  -1.2313  -1.2040  -1.1593  -1.0683  -1.0117
    -0.9769  -0.9493  -0.9111  -0.8850  -0.7976  -0.7787  -0.7206  -0.6083
    -0.5611  -0.5445  -0.5127  -0.4709  -0.4517  -0.3516  -0.3276  -0.2568
    -0.2235  -0.1988  -0.1651  -0.1446  -0.0892  -0.0638   0.1148   0.1661
     0.3338   0.4779   0.6489   0.9524   1.1177   1.3750   1.5696

          k = 0.0404 0.0000 0.0000 ( 43807 PWs)   bands (ev):

   -84.0033 -83.9097 -83.8974 -83.8854 -83.8787 -83.8389 -83.8098 -83.8065
   -83.7988 -83.7943 -83.7659 -83.7608 -52.6902 -52.5942 -52.4234 -52.2884
   -52.2819 -52.2294 -52.2065 -52.1940 -52.1385 -52.1192 -52.0722 -52.0554
   -52.0404 -51.9410 -51.8553 -51.8406 -51.8022 -51.7830 -49.8870 -49.7987
   -49.7627 -49.7502 -49.7374 -49.7204 -49.7067 -49.6910 -49.6783 -49.6716
   -49.6654 -49.6431 -49.6283 -49.6208 -49.6065 -49.6000 -49.5878 -49.5704
   -49.5603 -49.5402 -49.5296 -49.5076 -49.4988 -49.4727 -49.4659 -49.4579
   -49.4416 -49.4154 -49.3825 -49.3574 -49.3506 -49.3302 -49.3201 -49.2863
   -49.2618 -49.2330  -7.3388  -6.3160  -5.6017  -5.3787  -5.0904  -4.9666
    -4.8872  -4.7451  -4.6936  -4.5991  -4.5286  -4.4342  -4.2817  -4.2364
    -4.1852  -4.1473  -4.0954  -4.0690  -4.0026  -3.9161  -3.8353  -3.7678
    -3.7313  -3.6520  -3.5516  -3.5105  -3.3907  -3.3228  -3.1187  -3.0633
    -2.9304  -2.9022  -2.8929  -2.8053  -2.7629  -2.7357  -2.7160  -2.6672
    -2.6303  -2.5600  -2.5289  -2.4620  -2.4137  -2.3670  -2.3125  -2.2843
    -2.2563  -2.2306  -2.1718  -2.0913  -2.0553  -2.0230  -1.9719  -1.9084
    -1.8415  -1.8300  -1.7586  -1.6652  -1.6469  -1.5874  -1.5348  -1.4213
    -1.3420  -1.3107  -1.2450  -1.2143  -1.1645  -1.1233  -1.0873  -1.0137
    -0.9837  -0.9618  -0.9153  -0.8714  -0.8019  -0.7339  -0.7198  -0.6665
    -0.5922  -0.5620  -0.4824  -0.4683  -0.4314  -0.3433  -0.2905  -0.2699
    -0.2393  -0.1873  -0.1554  -0.1359  -0.1023  -0.0783   0.0670   0.1684
     0.4362   0.4643   0.6124   0.8786   1.2019   1.3204   1.5859

          k =-0.0202-0.0816 0.0000 ( 43761 PWs)   bands (ev):

   -84.0033 -83.9094 -83.8976 -83.8856 -83.8786 -83.8389 -83.8107 -83.8056
   -83.7986 -83.7945 -83.7658 -83.7609 -52.6903 -52.5944 -52.4235 -52.2894
   -52.2818 -52.2294 -52.2062 -52.1941 -52.1380 -52.1200 -52.0715 -52.0542
   -52.0409 -51.9409 -51.8551 -51.8408 -51.8022 -51.7830 -49.8782 -49.8025
   -49.7815 -49.7531 -49.7384 -49.7343 -49.7122 -49.6848 -49.6673 -49.6623
   -49.6580 -49.6292 -49.6226 -49.6154 -49.6109 -49.5934 -49.5848 -49.5677
   -49.5540 -49.5379 -49.5337 -49.5198 -49.5086 -49.4797 -49.4648 -49.4581
   -49.4417 -49.4161 -49.3830 -49.3573 -49.3501 -49.3299 -49.3201 -49.2862
   -49.2619 -49.2325  -7.2047  -6.2706  -5.5852  -5.3704  -5.1777  -4.9270
    -4.7808  -4.7361  -4.6515  -4.5581  -4.4478  -4.4104  -4.2635  -4.2591
    -4.1912  -4.1166  -4.0642  -4.0331  -4.0007  -3.9099  -3.8791  -3.8319
    -3.7531  -3.6826  -3.5602  -3.4711  -3.3395  -3.2947  -3.2059  -3.0978
    -3.0664  -2.9867  -2.9574  -2.8914  -2.8628  -2.8283  -2.7957  -2.7401
    -2.6880  -2.6392  -2.5973  -2.5243  -2.4985  -2.4165  -2.3785  -2.2981
    -2.2716  -2.2162  -2.1730  -2.1254  -2.0892  -2.0578  -2.0147  -1.9407
    -1.8861  -1.8630  -1.7797  -1.7377  -1.6729  -1.6619  -1.5980  -1.4658
    -1.4044  -1.3480  -1.2887  -1.2623  -1.2022  -1.1603  -1.0758  -1.0392
    -1.0324  -0.9431  -0.8908  -0.8506  -0.7811  -0.7733  -0.7415  -0.7163
    -0.6578  -0.5955  -0.5507  -0.4795  -0.4031  -0.3402  -0.3285  -0.2662
    -0.2110  -0.1359  -0.1126  -0.0146   0.0363   0.0684   0.1164   0.2642
     0.3240   0.6246   0.7973   1.4499   1.8057   2.0881   2.3700

          k = 0.0808-0.0233 0.0000 ( 43761 PWs)   bands (ev):

   -84.0032 -83.9097 -83.8974 -83.8855 -83.8786 -83.8388 -83.8102 -83.8060
   -83.7990 -83.7944 -83.7658 -83.7608 -52.6902 -52.5942 -52.4234 -52.2894
   -52.2819 -52.2294 -52.2065 -52.1941 -52.1382 -52.1195 -52.0712 -52.0552
   -52.0404 -51.9410 -51.8553 -51.8406 -51.8022 -51.7830 -49.8867 -49.8003
   -49.7678 -49.7463 -49.7321 -49.7257 -49.7061 -49.6885 -49.6773 -49.6707
   -49.6636 -49.6325 -49.6284 -49.6188 -49.6122 -49.6038 -49.5908 -49.5607
   -49.5523 -49.5383 -49.5285 -49.5171 -49.5061 -49.4730 -49.4687 -49.4580
   -49.4413 -49.4157 -49.3823 -49.3571 -49.3505 -49.3300 -49.3201 -49.2862
   -49.2618 -49.2327  -7.2551  -6.1770  -5.6596  -5.3892  -5.0690  -4.9784
    -4.7633  -4.6800  -4.6351  -4.5173  -4.4441  -4.4039  -4.2947  -4.2477
    -4.2154  -4.1446  -4.0753  -4.0588  -3.9950  -3.9691  -3.8471  -3.8049
    -3.7269  -3.6992  -3.5600  -3.4700  -3.3629  -3.2459  -3.2089  -3.1144
    -3.0459  -3.0290  -2.9610  -2.9280  -2.8767  -2.8302  -2.7796  -2.7468
    -2.7158  -2.6431  -2.5933  -2.5498  -2.4673  -2.4349  -2.3629  -2.3095
    -2.2942  -2.2143  -2.1714  -2.1163  -2.0857  -2.0370  -1.9975  -1.9435
    -1.8873  -1.8494  -1.8148  -1.7515  -1.6822  -1.6534  -1.5740  -1.4585
    -1.4068  -1.3580  -1.2986  -1.2655  -1.1938  -1.1609  -1.0843  -1.0343
    -1.0135  -0.9442  -0.8979  -0.8539  -0.7930  -0.7489  -0.7324  -0.7231
    -0.6547  -0.5823  -0.5496  -0.4847  -0.4009  -0.3502  -0.3248  -0.2787
    -0.2174  -0.1482  -0.0929  -0.0268   0.0249   0.0595   0.1285   0.3187
     0.3332   0.5751   0.7271   1.5083   1.6599   2.1478   2.4074

          k =-0.0606-0.0583 0.0000 ( 43761 PWs)   bands (ev):

   -84.0032 -83.9097 -83.8973 -83.8855 -83.8787 -83.8389 -83.8096 -83.8066
   -83.7990 -83.7943 -83.7659 -83.7607 -52.6903 -52.5944 -52.4235 -52.2890
   -52.2830 -52.2299 -52.2065 -52.1938 -52.1385 -52.1184 -52.0718 -52.0540
   -52.0401 -51.9410 -51.8554 -51.8406 -51.8021 -51.7830 -49.8908 -49.7991
   -49.7653 -49.7556 -49.7406 -49.7214 -49.7110 -49.6872 -49.6813 -49.6711
   -49.6654 -49.6311 -49.6212 -49.6182 -49.5943 -49.5873 -49.5831 -49.5697
   -49.5465 -49.5404 -49.5355 -49.5153 -49.5086 -49.4847 -49.4712 -49.4581
   -49.4418 -49.4155 -49.3826 -49.3571 -49.3505 -49.3300 -49.3201 -49.2861
   -49.2616 -49.2329  -7.2356  -6.0816  -5.8073  -5.3911  -5.0420  -4.9430
    -4.8763  -4.6547  -4.5994  -4.5125  -4.4612  -4.4025  -4.3297  -4.2881
    -4.2127  -4.1641  -4.0699  -4.0174  -3.9899  -3.9179  -3.8826  -3.8253
    -3.7296  -3.6950  -3.5586  -3.4402  -3.3785  -3.2526  -3.1905  -3.1177
    -3.0546  -3.0169  -2.9697  -2.8973  -2.8738  -2.8185  -2.7769  -2.7492
    -2.6882  -2.6586  -2.6008  -2.5473  -2.4563  -2.4303  -2.3704  -2.3275
    -2.2938  -2.2128  -2.1777  -2.1085  -2.0712  -2.0419  -2.0017  -1.9379
    -1.8906  -1.8325  -1.7643  -1.7324  -1.6902  -1.6502  -1.6212  -1.4930
    -1.3829  -1.3607  -1.2887  -1.2576  -1.2285  -1.1088  -1.1080  -1.0359
    -1.0056  -0.9216  -0.9021  -0.8646  -0.7950  -0.7790  -0.7315  -0.7062
    -0.6670  -0.6208  -0.5406  -0.4345  -0.4007  -0.3536  -0.3217  -0.2651
    -0.2094  -0.1441  -0.0764  -0.0280   0.0114   0.0670   0.1012   0.2957
     0.3541   0.5909   0.7336   1.4659   1.7042   2.1014   2.4023

          k = 0.0808 0.0233 0.0000 ( 43761 PWs)   bands (ev):

   -84.0032 -83.9096 -83.8974 -83.8856 -83.8787 -83.8389 -83.8100 -83.8064
   -83.7988 -83.7943 -83.7659 -83.7607 -52.6903 -52.5944 -52.4235 -52.2890
   -52.2829 -52.2299 -52.2064 -52.1938 -52.1384 -52.1186 -52.0720 -52.0535
   -52.0404 -51.9410 -51.8553 -51.8406 -51.8022 -51.7830 -49.8875 -49.8006
   -49.7683 -49.7599 -49.7418 -49.7294 -49.7135 -49.6863 -49.6779 -49.6659
   -49.6635 -49.6275 -49.6184 -49.6144 -49.5919 -49.5845 -49.5809 -49.5633
   -49.5597 -49.5397 -49.5344 -49.5192 -49.5123 -49.4802 -49.4743 -49.4583
   -49.4419 -49.4157 -49.3830 -49.3572 -49.3503 -49.3300 -49.3201 -49.2861
   -49.2617 -49.2328  -7.2100  -6.1686  -5.7108  -5.3888  -5.0945  -4.9961
    -4.8287  -4.6931  -4.6200  -4.5288  -4.4597  -4.3456  -4.3273  -4.2610
    -4.2271  -4.1521  -4.1106  -4.0613  -3.9938  -3.9528  -3.8736  -3.7563
    -3.6988  -3.6521  -3.5442  -3.4759  -3.3688  -3.2491  -3.2112  -3.0997
    -3.0699  -2.9988  -2.9497  -2.9292  -2.8417  -2.8021  -2.7568  -2.7495
    -2.7092  -2.6650  -2.6287  -2.5516  -2.5006  -2.4153  -2.3608  -2.3397
    -2.2616  -2.1999  -2.1517  -2.1212  -2.0716  -2.0548  -2.0003  -1.9328
    -1.8878  -1.8520  -1.7874  -1.7596  -1.6679  -1.6572  -1.5981  -1.4535
    -1.3988  -1.3475  -1.3025  -1.2574  -1.2198  -1.1480  -1.0897  -1.0341
    -1.0058  -0.9407  -0.9042  -0.8550  -0.8111  -0.7720  -0.7413  -0.6880
    -0.6761  -0.5961  -0.5345  -0.4386  -0.4112  -0.3441  -0.3032  -0.2701
    -0.2166  -0.1383  -0.0758  -0.0487   0.0215   0.0540   0.1155   0.2974
     0.3479   0.5883   0.7700   1.5164   1.6087   2.0982   2.4175

          k =-0.0606 0.0583 0.0000 ( 43761 PWs)   bands (ev):

   -84.0032 -83.9098 -83.8973 -83.8855 -83.8787 -83.8388 -83.8098 -83.8063
   -83.7991 -83.7944 -83.7659 -83.7607 -52.6902 -52.5942 -52.4234 -52.2892
   -52.2824 -52.2296 -52.2066 -52.1940 -52.1384 -52.1190 -52.0713 -52.0552
   -52.0401 -51.9410 -51.8554 -51.8406 -51.8021 -51.7830 -49.8903 -49.7992
   -49.7628 -49.7468 -49.7352 -49.7194 -49.7063 -49.6881 -49.6806 -49.6731
   -49.6646 -49.6369 -49.6284 -49.6219 -49.6084 -49.6015 -49.5876 -49.5651
   -49.5417 -49.5379 -49.5306 -49.5162 -49.5093 -49.4759 -49.4689 -49.4580
   -49.4414 -49.4156 -49.3821 -49.3570 -49.3507 -49.3300 -49.3200 -49.2861
   -49.2616 -49.2328  -7.2643  -6.1087  -5.7460  -5.3912  -5.0613  -4.8880
    -4.8100  -4.7257  -4.5926  -4.4940  -4.4538  -4.3747  -4.3116  -4.2759
    -4.2175  -4.1761  -4.0997  -4.0372  -3.9942  -3.9254  -3.8768  -3.8470
    -3.7243  -3.6751  -3.5581  -3.4688  -3.3713  -3.2349  -3.1826  -3.1076
    -3.0707  -3.0222  -2.9767  -2.9118  -2.8592  -2.8528  -2.7804  -2.7537
    -2.6891  -2.6328  -2.6126  -2.5499  -2.5046  -2.4250  -2.3520  -2.3325
    -2.2948  -2.2014  -2.1821  -2.1001  -2.0690  -2.0426  -2.0093  -1.9390
    -1.9054  -1.8212  -1.7725  -1.7387  -1.6964  -1.6528  -1.5956  -1.4893
    -1.4097  -1.3726  -1.2892  -1.2429  -1.2119  -1.1315  -1.1070  -1.0518
    -0.9915  -0.9372  -0.8777  -0.8479  -0.8017  -0.7705  -0.7309  -0.7098
    -0.6740  -0.5887  -0.5482  -0.4758  -0.3956  -0.3499  -0.3206  -0.2678
    -0.2411  -0.1360  -0.0850  -0.0177   0.0013   0.0756   0.1110   0.3092
     0.3634   0.5732   0.6907   1.5050   1.7044   2.1020   2.4106

     the Fermi energy is     0.0036 ev

!    total energy              =   -7410.04803225 Ry
     Harris-Foulkes estimate   =   -7410.04802909 Ry
     estimated scf accuracy    <       0.00000006 Ry

     The total energy is the sum of the following terms:

     one-electron contribution =  -27917.64842714 Ry
     hartree contribution      =   13975.08915661 Ry
     xc contribution           =    -711.67882958 Ry
     ewald contribution        =   10306.97642753 Ry
     one-center paw contrib.   =   -3062.71006555 Ry
     smearing contrib. (-TS)   =      -0.07629413 Ry

     convergence has been achieved in  27 iterations

     Forces acting on atoms (Ry/au):


     negative rho (up, down):  1.077E+00 0.000E+00
     atom    1 type  1   force =     0.00156854   -0.00029865    0.00117016
     atom    2 type  2   force =    -0.00040856    0.00247023    0.00200731
     atom    3 type  1   force =    -0.00061290   -0.00037127   -0.00131493
     atom    4 type  2   force =     0.00025794   -0.00030764    0.00226147
     atom    5 type  2   force =    -0.00012649   -0.00041776    0.00112299
     atom    6 type  2   force =    -0.00028024    0.00022496   -0.00092823
     atom    7 type  1   force =    -0.00205756   -0.00097771    0.00092183
     atom    8 type  2   force =    -0.00234813    0.00075528   -0.00122600
     atom    9 type  1   force =     0.00379305    0.00029444    0.00063745
     atom   10 type  2   force =    -0.00188790    0.00253840    0.00020310
     atom   11 type  1   force =     0.00061454    0.00156524   -0.00057116
     atom   12 type  2   force =     0.00071941   -0.00002570   -0.00219765
     atom   13 type  2   force =    -0.00048398   -0.00024028    0.00060605
     atom   14 type  2   force =     0.00145435   -0.00024680    0.00390588
     atom   15 type  2   force =    -0.00116768   -0.00294587    0.00280578
     atom   16 type  2   force =     0.00028734    0.00085146   -0.00253443
     atom   17 type  1   force =    -0.00149644   -0.01013252   -0.00407130
     atom   18 type  2   force =     0.00195098   -0.00170593    0.00212265
     atom   19 type  3   force =    -0.00032699    0.00465105    0.00699217
     atom   20 type  3   force =     0.00055070    0.00431907   -0.01191312

     Total force =     0.021879     Total SCF correction =     0.000708
 !ASE

     Writing output data file calc.save
     Check: negative starting charge=   -1.120084
     NEW-OLD atomic charge density approx. for the potential

     Check: negative/imaginary core charge=   -0.000001    0.000000
     Check: negative starting charge=   -1.120994

     negative rho (up, down):  1.078E+00 0.000E+00

     total cpu time spent up to now is   142271.3 secs

     per-process dynamical memory:    99.5 Mb

     Self-consistent Calculation

     iteration #  1     ecut=    44.10 Ry     beta=0.05
     CG style diagonalization
