  python dir          : /gpfs/pace1/project/chbe-medford/medford-share/gits/frozen/ben_espresso_8_24_2017/espresso
  espresso dir        : /nv/hp22/amedford6/medford-shared/builds/espresso/5.1.r11289-pybeef/intel-16.0+mvapich2-2.2+mkl-11.3/espresso-5.1.r11289-pybeef/bin
  pseudo dir          : /gpfs/pace1/project/chbe-medford/medford-share/data/pseudos/SSSP_eff_PBE
  ase-espresso py git : GITVERSION



     Program PWSCF v.5.1rc2 starts on 25Nov2017 at 23: 2:47 

     This program is part of the open-source Quantum ESPRESSO suite
     for quantum simulation of materials; please cite
         "P. Giannozzi et al., J. Phys.:Condens. Matter 21 395502 (2009);
          URL http://www.quantum-espresso.org", 
     in publications or presentations arising from this work. More details at
     http://www.quantum-espresso.org/quote

     Parallel version (MPI), running on    49 processors
     R & G space division:  proc/nbgrp/npool/nimage =      49
     Reading input from pw.inp
     Message from routine read_cards :
     DEPRECATED: no units specified in CELL_PARAMETERS card

     Current dimensions of program PWSCF are:
     Max number of different atomic species (ntypx) = 10
     Max number of k-points (npk) =  40000
     Max angular momentum in pseudopotentials (lmaxx) =  3

     IMPORTANT: XC functional enforced from input :
     Exchange-correlation      = PBE ( 1  4  3  4 0)
     Any further DFT definition will be discarded
     Please, verify this is what you really want

               file Pd.UPF: wavefunction(s)  4S 5S 4D renormalized

     Subspace diagonalization in iterative solution of the eigenvalue problem:
     a serial algorithm will be used

 
     Parallelization info
     --------------------
     sticks:   dense  smooth     PW     G-vecs:    dense   smooth      PW
     Min         113      60     16                18343     7118    1006
     Max         114      61     17                18356     7174    1015
     Sum        5551    2941    805               899157   350049   49521
 


     bravais-lattice index     =            0
     lattice parameter (alat)  =       1.8897  a.u.
     unit-cell volume          =    8852.9658 (a.u.)^3
     number of atoms/cell      =           20
     number of atomic types    =            3
     number of electrons       =       314.00
     number of Kohn-Sham states=          167
     kinetic-energy cutoff     =      44.0992  Ry
     charge density cutoff     =     330.7439  Ry
     convergence threshold     =      7.3E-08
     mixing beta               =       0.0500
     number of iterations used =            8  local-TF  mixing
     Exchange-correlation      = PBE ( 1  4  3  4 0)
     nstep                     =           50


     celldm(1)=   1.889726  celldm(2)=   0.000000  celldm(3)=   0.000000
     celldm(4)=   0.000000  celldm(5)=   0.000000  celldm(6)=   0.000000

     crystal axes: (cart. coord. in units of alat)
               a(1) = (   8.251936   0.000000   0.000000 )  
               a(2) = (   4.125968   7.146386   0.000000 )  
               a(3) = (   0.000000   0.000000  22.245893 )  

     reciprocal axes: (cart. coord. in units 2 pi/alat)
               b(1) = (  0.121184 -0.069965  0.000000 )  
               b(2) = (  0.000000  0.139931  0.000000 )  
               b(3) = (  0.000000  0.000000  0.044952 )  


     PseudoPot. # 1 for Pt read from file:
     /gpfs/pace1/project/chbe-medford/medford-share/data/pseudos/SSSP_eff_PBE/Pt.UPF
     MD5 check sum: f09d6de1a584b5a045c4fc126da2d0c4
     Pseudo is Ultrasoft + core correction, Zval = 16.0
     Generated by new atomic code, or converted to UPF format
     Using radial grid of  985 points,  6 beta functions with: 
                l(1) =   0
                l(2) =   0
                l(3) =   1
                l(4) =   1
                l(5) =   2
                l(6) =   2
     Q(r) pseudized with  8 coefficients,  rinner =    1.300   1.300   1.300
                                                       1.300   1.300

     PseudoPot. # 2 for Pd read from file:
     /gpfs/pace1/project/chbe-medford/medford-share/data/pseudos/SSSP_eff_PBE/Pd.UPF
     MD5 check sum: ea89d3e00be872097c4300495f51d8eb
     Pseudo is Projector augmented-wave + core cor, Zval = 18.0
     Generated using "atomic" code by A. Dal Corso  v.5.1
     Shape of augmentation charge: PSQ
     Using radial grid of 1235 points,  6 beta functions with: 
                l(1) =   0
                l(2) =   0
                l(3) =   1
                l(4) =   1
                l(5) =   2
                l(6) =   2
     Q(r) pseudized with 0 coefficients 


     PseudoPot. # 3 for  H read from file:
     /gpfs/pace1/project/chbe-medford/medford-share/data/pseudos/SSSP_eff_PBE/H.UPF
     MD5 check sum: 36633979392af7100e6f6632747262d3
     Pseudo is Ultrasoft, Zval =  1.0
     Generated using "atomic" code by A. Dal Corso  v.5.0.99 svn rev. 10869
     Using radial grid of  929 points,  2 beta functions with: 
                l(1) =   0
                l(2) =   0
     Q(r) pseudized with 0 coefficients 


     atomic species   valence    mass     pseudopotential
        Pt1           16.00   195.08400     Pt( 1.00)
        Pd1           18.00   106.42000     Pd( 1.00)
        H1             1.00     1.00800      H( 1.00)

     No symmetry found



   Cartesian axes

     site n.     atom                  positions (alat units)
         1           Pt1 tau(   1) = (   8.2519361   1.5880858  10.0000000  )
         2           Pd1 tau(   2) = (   2.7506454   1.5880858  10.0000000  )
         3           Pt1 tau(   3) = (   5.5012908   1.5880858  10.0000000  )
         4           Pd1 tau(   4) = (   9.6272588   3.9702146  10.0000000  )
         5           Pd1 tau(   5) = (   4.1259681   3.9702146  10.0000000  )
         6           Pd1 tau(   6) = (   6.8766134   3.9702146  10.0000000  )
         7           Pt1 tau(   7) = (  11.0025815   6.3523434  10.0000000  )
         8           Pd1 tau(   8) = (   5.5012908   6.3523434  10.0000000  )
         9           Pt1 tau(   9) = (   8.2519361   6.3523434  10.0000000  )
        10           Pd1 tau(  10) = (   0.0000000   0.0000000  12.2458925  )
        11           Pt1 tau(  11) = (   2.7506454   0.0000000  12.2458925  )
        12           Pd1 tau(  12) = (   5.5012908   0.0000000  12.2458925  )
        13           Pd1 tau(  13) = (   1.3753227   2.3821288  12.2458925  )
        14           Pd1 tau(  14) = (   4.1259681   2.3821288  12.2458925  )
        15           Pd1 tau(  15) = (   6.8766134   2.3821288  12.2458925  )
        16           Pd1 tau(  16) = (   2.7506454   4.7642575  12.2458925  )
        17           Pt1 tau(  17) = (   5.5012908   4.7642575  12.2458925  )
        18           Pd1 tau(  18) = (   8.2519361   4.7642575  12.2458925  )
        19           H1  tau(  19) = (   5.5012908   3.1761717  13.7458925  )
        20           H1  tau(  20) = (   5.5012908   3.1761717  14.2958925  )

     number of k points=    20  Fermi-Dirac smearing, width (Ry)=  0.0073
                       cart. coord. in units 2pi/alat
        k(    1) = (   0.0000000   0.0000000   0.0000000), wk =   0.0555556
        k(    2) = (   0.0000000   0.0233218   0.0000000), wk =   0.1111111
        k(    3) = (   0.0000000   0.0466436   0.0000000), wk =   0.1111111
        k(    4) = (   0.0000000  -0.0699654   0.0000000), wk =   0.0555556
        k(    5) = (   0.0201973   0.0349827   0.0000000), wk =   0.1111111
        k(    6) = (   0.0201973  -0.0816263   0.0000000), wk =   0.1111111
        k(    7) = (   0.0403946  -0.0699654   0.0000000), wk =   0.1111111
        k(    8) = (  -0.0201973   0.0116609   0.0000000), wk =   0.1111111
        k(    9) = (   0.0201973   0.0116609   0.0000000), wk =   0.1111111
        k(   10) = (  -0.0403946   0.0233218   0.0000000), wk =   0.1111111
        k(   11) = (   0.0403946   0.0233218   0.0000000), wk =   0.1111111
        k(   12) = (   0.0605918  -0.0349827   0.0000000), wk =   0.0555556
        k(   13) = (  -0.0605918  -0.0349827   0.0000000), wk =   0.0555556
        k(   14) = (  -0.0201973   0.0349827   0.0000000), wk =   0.1111111
        k(   15) = (   0.0403946   0.0000000   0.0000000), wk =   0.1111111
        k(   16) = (  -0.0201973  -0.0816263   0.0000000), wk =   0.1111111
        k(   17) = (   0.0807891  -0.0233218   0.0000000), wk =   0.1111111
        k(   18) = (  -0.0605918  -0.0583045   0.0000000), wk =   0.1111111
        k(   19) = (   0.0807891   0.0233218   0.0000000), wk =   0.1111111
        k(   20) = (  -0.0605918   0.0583045   0.0000000), wk =   0.1111111

     Dense  grid:   899157 G-vectors     FFT dimensions: (  96,  96, 243)

     Smooth grid:   350049 G-vectors     FFT dimensions: (  72,  72, 180)

     Largest allocated arrays     est. size (Mb)     dimensions
        Kohn-Sham Wavefunctions         2.37 Mb     (     929,  167)
        NL pseudopotentials             4.65 Mb     (     929,  328)
        Each V/rho on FFT grid          0.70 Mb     (   46080)
        Each G-vector array             0.14 Mb     (   18345)
        G-vector shells                 0.06 Mb     (    8231)
     Largest temporary arrays     est. size (Mb)     dimensions
        Each subspace H/S matrix        0.43 Mb     (     167,  167)
        Each <psi_i|beta_j> matrix      0.84 Mb     (     328,  167)
        Arrays for rho mixing           5.62 Mb     (   46080,    8)

     Check: negative/imaginary core charge=   -0.000001    0.000000

     Initial potential from superposition of free atoms
     Check: negative starting charge=   -1.119154

     starting charge  310.99532, renormalised to  314.00000

     negative rho (up, down):  1.130E+00 0.000E+00
     Starting wfc are  194 randomized atomic wfcs
