  python dir          : /gpfs/pace1/project/chbe-medford/medford-share/gits/frozen/ben_espresso_8_24_2017/espresso
  espresso dir        : /nv/hp22/amedford6/medford-shared/builds/espresso/5.1.r11289-pybeef/intel-16.0+mvapich2-2.2+mkl-11.3/espresso-5.1.r11289-pybeef/bin
  pseudo dir          : /gpfs/pace1/project/chbe-medford/medford-share/data/pseudos/SSSP_eff_PBE
  ase-espresso py git : GITVERSION



     Program PWSCF v.5.1rc2 starts on 25Nov2017 at 23: 7: 2 

     This program is part of the open-source Quantum ESPRESSO suite
     for quantum simulation of materials; please cite
         "P. Giannozzi et al., J. Phys.:Condens. Matter 21 395502 (2009);
          URL http://www.quantum-espresso.org", 
     in publications or presentations arising from this work. More details at
     http://www.quantum-espresso.org/quote

     Parallel version (MPI), running on    49 processors
     R & G space division:  proc/nbgrp/npool/nimage =      49
     Reading input from pw.inp
     Message from routine read_cards :
     DEPRECATED: no units specified in CELL_PARAMETERS card

     Current dimensions of program PWSCF are:
     Max number of different atomic species (ntypx) = 10
     Max number of k-points (npk) =  40000
     Max angular momentum in pseudopotentials (lmaxx) =  3

     IMPORTANT: XC functional enforced from input :
     Exchange-correlation      = PBE ( 1  4  3  4 0)
     Any further DFT definition will be discarded
     Please, verify this is what you really want

               file Pd.UPF: wavefunction(s)  4S 5S 4D renormalized

     Subspace diagonalization in iterative solution of the eigenvalue problem:
     a serial algorithm will be used

 
     Parallelization info
     --------------------
     sticks:   dense  smooth     PW     G-vecs:    dense   smooth      PW
     Min         113      60     16                18343     7118    1006
     Max         114      61     17                18356     7174    1015
     Sum        5551    2941    805               899157   350049   49521
 


     bravais-lattice index     =            0
     lattice parameter (alat)  =       1.8897  a.u.
     unit-cell volume          =    8852.9658 (a.u.)^3
     number of atoms/cell      =           20
     number of atomic types    =            3
     number of electrons       =       332.00
     number of Kohn-Sham states=          176
     kinetic-energy cutoff     =      44.0992  Ry
     charge density cutoff     =     330.7439  Ry
     convergence threshold     =      7.3E-08
     mixing beta               =       0.0500
     number of iterations used =            8  local-TF  mixing
     Exchange-correlation      = PBE ( 1  4  3  4 0)
     nstep                     =           50


     celldm(1)=   1.889726  celldm(2)=   0.000000  celldm(3)=   0.000000
     celldm(4)=   0.000000  celldm(5)=   0.000000  celldm(6)=   0.000000

     crystal axes: (cart. coord. in units of alat)
               a(1) = (   8.251936   0.000000   0.000000 )  
               a(2) = (   4.125968   7.146386   0.000000 )  
               a(3) = (   0.000000   0.000000  22.245893 )  

     reciprocal axes: (cart. coord. in units 2 pi/alat)
               b(1) = (  0.121184 -0.069965  0.000000 )  
               b(2) = (  0.000000  0.139931  0.000000 )  
               b(3) = (  0.000000  0.000000  0.044952 )  


     PseudoPot. # 1 for Ag read from file:
     /gpfs/pace1/project/chbe-medford/medford-share/data/pseudos/SSSP_eff_PBE/Ag.UPF
     MD5 check sum: d66d668201baa78d5eb5b04ef7011058
     Pseudo is Ultrasoft + core correction, Zval = 19.0
     Generated by new atomic code, or converted to UPF format
     Using radial grid of  887 points,  6 beta functions with: 
                l(1) =   0
                l(2) =   0
                l(3) =   1
                l(4) =   1
                l(5) =   2
                l(6) =   2
     Q(r) pseudized with  6 coefficients,  rinner =    1.300   1.300   1.300
                                                       1.300   1.300

     PseudoPot. # 2 for Pd read from file:
     /gpfs/pace1/project/chbe-medford/medford-share/data/pseudos/SSSP_eff_PBE/Pd.UPF
     MD5 check sum: ea89d3e00be872097c4300495f51d8eb
     Pseudo is Projector augmented-wave + core cor, Zval = 18.0
     Generated using "atomic" code by A. Dal Corso  v.5.1
     Shape of augmentation charge: PSQ
     Using radial grid of 1235 points,  6 beta functions with: 
                l(1) =   0
                l(2) =   0
                l(3) =   1
                l(4) =   1
                l(5) =   2
                l(6) =   2
     Q(r) pseudized with 0 coefficients 


     PseudoPot. # 3 for  H read from file:
     /gpfs/pace1/project/chbe-medford/medford-share/data/pseudos/SSSP_eff_PBE/H.UPF
     MD5 check sum: 36633979392af7100e6f6632747262d3
     Pseudo is Ultrasoft, Zval =  1.0
     Generated using "atomic" code by A. Dal Corso  v.5.0.99 svn rev. 10869
     Using radial grid of  929 points,  2 beta functions with: 
                l(1) =   0
                l(2) =   0
     Q(r) pseudized with 0 coefficients 


     atomic species   valence    mass     pseudopotential
        Ag1           19.00   107.86820     Ag( 1.00)
        Pd1           18.00   106.42000     Pd( 1.00)
        H1             1.00     1.00800      H( 1.00)

     No symmetry found



   Cartesian axes

     site n.     atom                  positions (alat units)
         1           Ag1 tau(   1) = (   8.2519361   1.5880858  10.0000000  )
         2           Pd1 tau(   2) = (   2.7506454   1.5880858  10.0000000  )
         3           Ag1 tau(   3) = (   5.5012908   1.5880858  10.0000000  )
         4           Pd1 tau(   4) = (   9.6272588   3.9702146  10.0000000  )
         5           Pd1 tau(   5) = (   4.1259681   3.9702146  10.0000000  )
         6           Pd1 tau(   6) = (   6.8766134   3.9702146  10.0000000  )
         7           Ag1 tau(   7) = (  11.0025815   6.3523434  10.0000000  )
         8           Pd1 tau(   8) = (   5.5012908   6.3523434  10.0000000  )
         9           Ag1 tau(   9) = (   8.2519361   6.3523434  10.0000000  )
        10           Pd1 tau(  10) = (   0.0000000   0.0000000  12.2458925  )
        11           Ag1 tau(  11) = (   2.7506454   0.0000000  12.2458925  )
        12           Pd1 tau(  12) = (   5.5012908   0.0000000  12.2458925  )
        13           Pd1 tau(  13) = (   1.3753227   2.3821288  12.2458925  )
        14           Pd1 tau(  14) = (   4.1259681   2.3821288  12.2458925  )
        15           Pd1 tau(  15) = (   6.8766134   2.3821288  12.2458925  )
        16           Pd1 tau(  16) = (   2.7506454   4.7642575  12.2458925  )
        17           Ag1 tau(  17) = (   5.5012908   4.7642575  12.2458925  )
        18           Pd1 tau(  18) = (   8.2519361   4.7642575  12.2458925  )
        19           H1  tau(  19) = (   5.5012908   3.1761717  12.7458925  )
        20           H1  tau(  20) = (   5.5012908   3.1761717  13.2958925  )

     number of k points=    20  Fermi-Dirac smearing, width (Ry)=  0.0073
                       cart. coord. in units 2pi/alat
        k(    1) = (   0.0000000   0.0000000   0.0000000), wk =   0.0555556
        k(    2) = (   0.0000000   0.0233218   0.0000000), wk =   0.1111111
        k(    3) = (   0.0000000   0.0466436   0.0000000), wk =   0.1111111
        k(    4) = (   0.0000000  -0.0699654   0.0000000), wk =   0.0555556
        k(    5) = (   0.0201973   0.0349827   0.0000000), wk =   0.1111111
        k(    6) = (   0.0201973  -0.0816263   0.0000000), wk =   0.1111111
        k(    7) = (   0.0403946  -0.0699654   0.0000000), wk =   0.1111111
        k(    8) = (  -0.0201973   0.0116609   0.0000000), wk =   0.1111111
        k(    9) = (   0.0201973   0.0116609   0.0000000), wk =   0.1111111
        k(   10) = (  -0.0403946   0.0233218   0.0000000), wk =   0.1111111
        k(   11) = (   0.0403946   0.0233218   0.0000000), wk =   0.1111111
        k(   12) = (   0.0605918  -0.0349827   0.0000000), wk =   0.0555556
        k(   13) = (  -0.0605918  -0.0349827   0.0000000), wk =   0.0555556
        k(   14) = (  -0.0201973   0.0349827   0.0000000), wk =   0.1111111
        k(   15) = (   0.0403946   0.0000000   0.0000000), wk =   0.1111111
        k(   16) = (  -0.0201973  -0.0816263   0.0000000), wk =   0.1111111
        k(   17) = (   0.0807891  -0.0233218   0.0000000), wk =   0.1111111
        k(   18) = (  -0.0605918  -0.0583045   0.0000000), wk =   0.1111111
        k(   19) = (   0.0807891   0.0233218   0.0000000), wk =   0.1111111
        k(   20) = (  -0.0605918   0.0583045   0.0000000), wk =   0.1111111

     Dense  grid:   899157 G-vectors     FFT dimensions: (  96,  96, 243)

     Smooth grid:   350049 G-vectors     FFT dimensions: (  72,  72, 180)

     Largest allocated arrays     est. size (Mb)     dimensions
        Kohn-Sham Wavefunctions         2.49 Mb     (     929,  176)
        NL pseudopotentials             4.65 Mb     (     929,  328)
        Each V/rho on FFT grid          0.70 Mb     (   46080)
        Each G-vector array             0.14 Mb     (   18345)
        G-vector shells                 0.06 Mb     (    8231)
     Largest temporary arrays     est. size (Mb)     dimensions
        Each subspace H/S matrix        0.47 Mb     (     176,  176)
        Each <psi_i|beta_j> matrix      0.88 Mb     (     328,  176)
        Arrays for rho mixing           5.62 Mb     (   46080,    8)

     Check: negative/imaginary core charge=   -0.000001    0.000000

     Initial potential from superposition of free atoms
     Check: negative starting charge=   -0.018532

     starting charge  328.99511, renormalised to  332.00000

     negative rho (up, down):  1.870E-02 0.000E+00
     Starting wfc are  200 randomized atomic wfcs
     Checking if some PAW data can be deallocated... 

     total cpu time spent up to now is      179.6 secs

     per-process dynamical memory:    89.2 Mb

     Self-consistent Calculation

     iteration #  1     ecut=    44.10 Ry     beta=0.05
     CG style diagonalization
     ethr =  1.00E-02,  avg # of iterations =  2.6

     negative rho (up, down):  1.783E-02 0.000E+00

     total cpu time spent up to now is      338.9 secs

     total energy              =   -7920.50954302 Ry
     Harris-Foulkes estimate   =   -7920.76141488 Ry
     estimated scf accuracy    <      11.71070701 Ry

     iteration #  2     ecut=    44.10 Ry     beta=0.05
     CG style diagonalization
     ethr =  3.53E-03,  avg # of iterations =  3.0

     negative rho (up, down):  1.580E-02 0.000E+00

     total cpu time spent up to now is      541.3 secs

     total energy              =   -7919.81947589 Ry
     Harris-Foulkes estimate   =   -7920.72275049 Ry
     estimated scf accuracy    <       9.92065573 Ry

     iteration #  3     ecut=    44.10 Ry     beta=0.05
     CG style diagonalization
     ethr =  2.99E-03,  avg # of iterations =  3.0

     negative rho (up, down):  1.530E-02 0.000E+00

     total cpu time spent up to now is      693.0 secs

     total energy              =   -7919.34513923 Ry
     Harris-Foulkes estimate   =   -7920.02818343 Ry
     estimated scf accuracy    <       4.24434539 Ry

     iteration #  4     ecut=    44.10 Ry     beta=0.05
     CG style diagonalization
     ethr =  1.28E-03,  avg # of iterations =  3.0

     negative rho (up, down):  1.556E-02 0.000E+00

     total cpu time spent up to now is      800.7 secs

     total energy              =   -7919.39360391 Ry
     Harris-Foulkes estimate   =   -7919.56738956 Ry
     estimated scf accuracy    <       1.16082200 Ry

     iteration #  5     ecut=    44.10 Ry     beta=0.05
     CG style diagonalization
     ethr =  3.50E-04,  avg # of iterations =  3.2

     negative rho (up, down):  1.498E-02 0.000E+00

     total cpu time spent up to now is      900.3 secs

     total energy              =   -7919.44905705 Ry
     Harris-Foulkes estimate   =   -7919.49861967 Ry
     estimated scf accuracy    <       0.47797270 Ry

     iteration #  6     ecut=    44.10 Ry     beta=0.05
     CG style diagonalization
     ethr =  1.44E-04,  avg # of iterations =  3.0

     negative rho (up, down):  1.452E-02 0.000E+00

     total cpu time spent up to now is     1048.7 secs

     total energy              =   -7919.35626431 Ry
     Harris-Foulkes estimate   =   -7919.46300524 Ry
     estimated scf accuracy    <       0.34949470 Ry

     iteration #  7     ecut=    44.10 Ry     beta=0.05
     CG style diagonalization
     ethr =  1.05E-04,  avg # of iterations =  3.6

     negative rho (up, down):  1.423E-02 0.000E+00

     total cpu time spent up to now is     1211.8 secs

     total energy              =   -7919.40236778 Ry
     Harris-Foulkes estimate   =   -7919.40637292 Ry
     estimated scf accuracy    <       0.11829711 Ry

     iteration #  8     ecut=    44.10 Ry     beta=0.05
     CG style diagonalization
     ethr =  3.56E-05,  avg # of iterations =  3.2

     negative rho (up, down):  1.181E-02 0.000E+00

     total cpu time spent up to now is     1347.1 secs

     total energy              =   -7919.39163674 Ry
     Harris-Foulkes estimate   =   -7919.41297837 Ry
     estimated scf accuracy    <       0.11358339 Ry

     iteration #  9     ecut=    44.10 Ry     beta=0.05
     CG style diagonalization
     ethr =  3.42E-05,  avg # of iterations =  3.0

     negative rho (up, down):  1.069E-02 0.000E+00

     total cpu time spent up to now is     1488.6 secs

     total energy              =   -7919.39158550 Ry
     Harris-Foulkes estimate   =   -7919.39663715 Ry
     estimated scf accuracy    <       0.05390048 Ry

     iteration # 10     ecut=    44.10 Ry     beta=0.05
     CG style diagonalization
     ethr =  1.62E-05,  avg # of iterations =  3.0

     negative rho (up, down):  1.073E-02 0.000E+00

     total cpu time spent up to now is     1614.9 secs

     total energy              =   -7919.39234075 Ry
     Harris-Foulkes estimate   =   -7919.39404912 Ry
     estimated scf accuracy    <       0.04130930 Ry

     iteration # 11     ecut=    44.10 Ry     beta=0.05
     CG style diagonalization
     ethr =  1.24E-05,  avg # of iterations =  3.0

     negative rho (up, down):  7.852E-03 0.000E+00

     total cpu time spent up to now is     1692.1 secs

     total energy              =   -7919.38587514 Ry
     Harris-Foulkes estimate   =   -7919.39542668 Ry
     estimated scf accuracy    <       0.03969216 Ry

     iteration # 12     ecut=    44.10 Ry     beta=0.05
     CG style diagonalization
     ethr =  1.20E-05,  avg # of iterations =  3.2

     negative rho (up, down):  7.717E-03 0.000E+00

     total cpu time spent up to now is     1775.7 secs

     total energy              =   -7919.38941345 Ry
     Harris-Foulkes estimate   =   -7919.38933821 Ry
     estimated scf accuracy    <       0.01904279 Ry

     iteration # 13     ecut=    44.10 Ry     beta=0.05
     CG style diagonalization
     ethr =  5.74E-06,  avg # of iterations =  3.0

     negative rho (up, down):  6.772E-03 0.000E+00

     total cpu time spent up to now is     1852.1 secs

     total energy              =   -7919.38619543 Ry
     Harris-Foulkes estimate   =   -7919.39008405 Ry
     estimated scf accuracy    <       0.02018872 Ry

     iteration # 14     ecut=    44.10 Ry     beta=0.05
     CG style diagonalization
     ethr =  5.74E-06,  avg # of iterations =  3.0

     negative rho (up, down):  6.776E-03 0.000E+00

     total cpu time spent up to now is     1929.2 secs

     total energy              =   -7919.38601455 Ry
     Harris-Foulkes estimate   =   -7919.38721289 Ry
     estimated scf accuracy    <       0.01071122 Ry

     iteration # 15     ecut=    44.10 Ry     beta=0.05
     CG style diagonalization
     ethr =  3.23E-06,  avg # of iterations =  3.0

     negative rho (up, down):  6.509E-03 0.000E+00

     total cpu time spent up to now is     2006.4 secs

     total energy              =   -7919.38590953 Ry
     Harris-Foulkes estimate   =   -7919.38647054 Ry
     estimated scf accuracy    <       0.00913463 Ry

     iteration # 16     ecut=    44.10 Ry     beta=0.05
     CG style diagonalization
     ethr =  2.75E-06,  avg # of iterations =  3.0

     negative rho (up, down):  6.164E-03 0.000E+00

     total cpu time spent up to now is     2082.7 secs

     total energy              =   -7919.38505343 Ry
     Harris-Foulkes estimate   =   -7919.38610853 Ry
     estimated scf accuracy    <       0.00741475 Ry

     iteration # 17     ecut=    44.10 Ry     beta=0.05
     CG style diagonalization
     ethr =  2.23E-06,  avg # of iterations =  3.0

     negative rho (up, down):  6.083E-03 0.000E+00

     total cpu time spent up to now is     2160.4 secs

     total energy              =   -7919.38514850 Ry
     Harris-Foulkes estimate   =   -7919.38543545 Ry
     estimated scf accuracy    <       0.00539423 Ry

     iteration # 18     ecut=    44.10 Ry     beta=0.05
     CG style diagonalization
     ethr =  1.62E-06,  avg # of iterations =  3.0

     negative rho (up, down):  5.759E-03 0.000E+00

     total cpu time spent up to now is     2236.2 secs

     total energy              =   -7919.38531310 Ry
     Harris-Foulkes estimate   =   -7919.38524455 Ry
     estimated scf accuracy    <       0.00503107 Ry

     iteration # 19     ecut=    44.10 Ry     beta=0.05
     CG style diagonalization
     ethr =  1.52E-06,  avg # of iterations =  3.2

     negative rho (up, down):  2.271E-02 0.000E+00

     total cpu time spent up to now is     2319.1 secs

     total energy              =   -7919.38411874 Ry
     Harris-Foulkes estimate   =   -7919.38582530 Ry
     estimated scf accuracy    <       0.00645894 Ry

     iteration # 20     ecut=    44.10 Ry     beta=0.05
     CG style diagonalization
     ethr =  1.52E-06,  avg # of iterations =  3.6

     negative rho (up, down):  2.154E-02 0.000E+00

     total cpu time spent up to now is     2413.8 secs

     total energy              =   -7919.38516942 Ry
     Harris-Foulkes estimate   =   -7919.38533242 Ry
     estimated scf accuracy    <       0.00380399 Ry

     iteration # 21     ecut=    44.10 Ry     beta=0.05
     CG style diagonalization
     ethr =  1.15E-06,  avg # of iterations =  3.0

     negative rho (up, down):  2.400E-02 0.000E+00

     total cpu time spent up to now is     2489.9 secs

     total energy              =   -7919.38519642 Ry
     Harris-Foulkes estimate   =   -7919.38522964 Ry
     estimated scf accuracy    <       0.00302398 Ry

     iteration # 22     ecut=    44.10 Ry     beta=0.05
     CG style diagonalization
     ethr =  9.11E-07,  avg # of iterations =  3.0

     negative rho (up, down):  3.011E-02 0.000E+00

     total cpu time spent up to now is     2566.6 secs

     total energy              =   -7919.38523410 Ry
     Harris-Foulkes estimate   =   -7919.38524046 Ry
     estimated scf accuracy    <       0.00248112 Ry

     iteration # 23     ecut=    44.10 Ry     beta=0.05
     CG style diagonalization
     ethr =  7.47E-07,  avg # of iterations =  3.0

     negative rho (up, down):  2.945E-02 0.000E+00

     total cpu time spent up to now is     2643.8 secs

     total energy              =   -7919.38529125 Ry
     Harris-Foulkes estimate   =   -7919.38532035 Ry
     estimated scf accuracy    <       0.00156992 Ry

     iteration # 24     ecut=    44.10 Ry     beta=0.05
     CG style diagonalization
     ethr =  4.73E-07,  avg # of iterations =  3.0

     negative rho (up, down):  3.070E-02 0.000E+00

     total cpu time spent up to now is     2719.6 secs

     total energy              =   -7919.38531555 Ry
     Harris-Foulkes estimate   =   -7919.38530646 Ry
     estimated scf accuracy    <       0.00146928 Ry

     iteration # 25     ecut=    44.10 Ry     beta=0.05
     CG style diagonalization
     ethr =  4.43E-07,  avg # of iterations =  3.0

     negative rho (up, down):  2.764E-02 0.000E+00

     total cpu time spent up to now is     2796.5 secs

     total energy              =   -7919.38511189 Ry
     Harris-Foulkes estimate   =   -7919.38532712 Ry
     estimated scf accuracy    <       0.00133422 Ry

     iteration # 26     ecut=    44.10 Ry     beta=0.05
     CG style diagonalization
     ethr =  4.02E-07,  avg # of iterations =  3.0

     negative rho (up, down):  2.899E-02 0.000E+00

     total cpu time spent up to now is     2872.4 secs

     total energy              =   -7919.38519031 Ry
     Harris-Foulkes estimate   =   -7919.38518069 Ry
     estimated scf accuracy    <       0.00105495 Ry

     iteration # 27     ecut=    44.10 Ry     beta=0.05
     CG style diagonalization
     ethr =  3.18E-07,  avg # of iterations =  3.0

     negative rho (up, down):  2.964E-02 0.000E+00

     total cpu time spent up to now is     2949.9 secs

     total energy              =   -7919.38526353 Ry
     Harris-Foulkes estimate   =   -7919.38520276 Ry
     estimated scf accuracy    <       0.00103952 Ry

     iteration # 28     ecut=    44.10 Ry     beta=0.05
     CG style diagonalization
     ethr =  3.13E-07,  avg # of iterations =  3.0

     negative rho (up, down):  2.155E-02 0.000E+00

     total cpu time spent up to now is     3026.5 secs

     total energy              =   -7919.38511824 Ry
     Harris-Foulkes estimate   =   -7919.38528268 Ry
     estimated scf accuracy    <       0.00126656 Ry

     iteration # 29     ecut=    44.10 Ry     beta=0.05
     CG style diagonalization
     ethr =  3.13E-07,  avg # of iterations =  3.0

     negative rho (up, down):  2.252E-02 0.000E+00

     total cpu time spent up to now is     3102.6 secs

     total energy              =   -7919.38505878 Ry
     Harris-Foulkes estimate   =   -7919.38515312 Ry
     estimated scf accuracy    <       0.00129659 Ry

     iteration # 30     ecut=    44.10 Ry     beta=0.05
     CG style diagonalization
     ethr =  3.13E-07,  avg # of iterations =  3.0

     negative rho (up, down):  2.028E-02 0.000E+00

     total cpu time spent up to now is     3179.6 secs

     total energy              =   -7919.38506995 Ry
     Harris-Foulkes estimate   =   -7919.38509409 Ry
     estimated scf accuracy    <       0.00090967 Ry

     iteration # 31     ecut=    44.10 Ry     beta=0.05
     CG style diagonalization
     ethr =  2.74E-07,  avg # of iterations =  3.0

     negative rho (up, down):  2.400E-02 0.000E+00

     total cpu time spent up to now is     3256.7 secs

     total energy              =   -7919.38515728 Ry
     Harris-Foulkes estimate   =   -7919.38507410 Ry
     estimated scf accuracy    <       0.00092554 Ry

     iteration # 32     ecut=    44.10 Ry     beta=0.05
     CG style diagonalization
     ethr =  2.74E-07,  avg # of iterations =  3.0

     negative rho (up, down):  2.078E-02 0.000E+00

     total cpu time spent up to now is     3333.9 secs

     total energy              =   -7919.38496444 Ry
     Harris-Foulkes estimate   =   -7919.38516381 Ry
     estimated scf accuracy    <       0.00102783 Ry

     iteration # 33     ecut=    44.10 Ry     beta=0.05
     CG style diagonalization
     ethr =  2.74E-07,  avg # of iterations =  3.5

     negative rho (up, down):  2.318E-02 0.000E+00

     total cpu time spent up to now is     3426.9 secs

     total energy              =   -7919.38489171 Ry
     Harris-Foulkes estimate   =   -7919.38517130 Ry
     estimated scf accuracy    <       0.00116853 Ry

     iteration # 34     ecut=    44.10 Ry     beta=0.05
     CG style diagonalization
     ethr =  2.74E-07,  avg # of iterations =  3.5

     negative rho (up, down):  2.423E-02 0.000E+00

     total cpu time spent up to now is     3518.5 secs

     total energy              =   -7919.38500821 Ry
     Harris-Foulkes estimate   =   -7919.38506927 Ry
     estimated scf accuracy    <       0.00063722 Ry

     iteration # 35     ecut=    44.10 Ry     beta=0.05
     CG style diagonalization
     ethr =  1.92E-07,  avg # of iterations =  3.0

     negative rho (up, down):  2.411E-02 0.000E+00

     total cpu time spent up to now is     3595.2 secs

     total energy              =   -7919.38498126 Ry
     Harris-Foulkes estimate   =   -7919.38501835 Ry
     estimated scf accuracy    <       0.00046006 Ry

     iteration # 36     ecut=    44.10 Ry     beta=0.05
     CG style diagonalization
     ethr =  1.39E-07,  avg # of iterations =  3.0

     negative rho (up, down):  2.313E-02 0.000E+00

     total cpu time spent up to now is     3672.0 secs

     total energy              =   -7919.38497306 Ry
     Harris-Foulkes estimate   =   -7919.38499599 Ry
     estimated scf accuracy    <       0.00031800 Ry

     iteration # 37     ecut=    44.10 Ry     beta=0.05
     CG style diagonalization
     ethr =  9.58E-08,  avg # of iterations =  3.0

     negative rho (up, down):  2.497E-02 0.000E+00

     total cpu time spent up to now is     3747.9 secs

     total energy              =   -7919.38496568 Ry
     Harris-Foulkes estimate   =   -7919.38497963 Ry
     estimated scf accuracy    <       0.00028835 Ry

     iteration # 38     ecut=    44.10 Ry     beta=0.05
     CG style diagonalization
     ethr =  8.69E-08,  avg # of iterations =  3.0

     negative rho (up, down):  2.227E-02 0.000E+00

     total cpu time spent up to now is     3824.9 secs

     total energy              =   -7919.38489793 Ry
     Harris-Foulkes estimate   =   -7919.38496822 Ry
     estimated scf accuracy    <       0.00025090 Ry

     iteration # 39     ecut=    44.10 Ry     beta=0.05
     CG style diagonalization
     ethr =  7.56E-08,  avg # of iterations =  3.0

     negative rho (up, down):  2.161E-02 0.000E+00

     total cpu time spent up to now is     3901.0 secs

     total energy              =   -7919.38486934 Ry
     Harris-Foulkes estimate   =   -7919.38489966 Ry
     estimated scf accuracy    <       0.00022525 Ry

     iteration # 40     ecut=    44.10 Ry     beta=0.05
     CG style diagonalization
     ethr =  6.78E-08,  avg # of iterations =  3.0

     negative rho (up, down):  2.154E-02 0.000E+00

     total cpu time spent up to now is     3977.6 secs

     total energy              =   -7919.38487372 Ry
     Harris-Foulkes estimate   =   -7919.38487313 Ry
     estimated scf accuracy    <       0.00019971 Ry

     iteration # 41     ecut=    44.10 Ry     beta=0.05
     CG style diagonalization
     ethr =  6.02E-08,  avg # of iterations =  3.0

     negative rho (up, down):  2.035E-02 0.000E+00

     total cpu time spent up to now is     4054.2 secs

     total energy              =   -7919.38487451 Ry
     Harris-Foulkes estimate   =   -7919.38488233 Ry
     estimated scf accuracy    <       0.00015433 Ry

     iteration # 42     ecut=    44.10 Ry     beta=0.05
     CG style diagonalization
     ethr =  4.65E-08,  avg # of iterations =  3.0

     negative rho (up, down):  2.135E-02 0.000E+00

     total cpu time spent up to now is     4130.9 secs

     total energy              =   -7919.38488491 Ry
     Harris-Foulkes estimate   =   -7919.38488030 Ry
     estimated scf accuracy    <       0.00007778 Ry

     iteration # 43     ecut=    44.10 Ry     beta=0.05
     CG style diagonalization
     ethr =  2.34E-08,  avg # of iterations =  3.0

     negative rho (up, down):  2.184E-02 0.000E+00

     total cpu time spent up to now is     4207.5 secs

     total energy              =   -7919.38489114 Ry
     Harris-Foulkes estimate   =   -7919.38488704 Ry
     estimated scf accuracy    <       0.00006298 Ry

     iteration # 44     ecut=    44.10 Ry     beta=0.05
     CG style diagonalization
     ethr =  1.90E-08,  avg # of iterations =  3.0

     negative rho (up, down):  2.231E-02 0.000E+00

     total cpu time spent up to now is     4283.5 secs

     total energy              =   -7919.38490735 Ry
     Harris-Foulkes estimate   =   -7919.38489195 Ry
     estimated scf accuracy    <       0.00005210 Ry

     iteration # 45     ecut=    44.10 Ry     beta=0.05
     CG style diagonalization
     ethr =  1.57E-08,  avg # of iterations =  3.0

     negative rho (up, down):  2.209E-02 0.000E+00

     total cpu time spent up to now is     4360.4 secs

     total energy              =   -7919.38490967 Ry
     Harris-Foulkes estimate   =   -7919.38490924 Ry
     estimated scf accuracy    <       0.00003398 Ry

     iteration # 46     ecut=    44.10 Ry     beta=0.05
     CG style diagonalization
     ethr =  1.02E-08,  avg # of iterations =  3.0

     negative rho (up, down):  2.189E-02 0.000E+00

     total cpu time spent up to now is     4437.6 secs

     total energy              =   -7919.38490718 Ry
     Harris-Foulkes estimate   =   -7919.38491021 Ry
     estimated scf accuracy    <       0.00002842 Ry

     iteration # 47     ecut=    44.10 Ry     beta=0.05
     CG style diagonalization
     ethr =  8.56E-09,  avg # of iterations =  3.2

     negative rho (up, down):  2.264E-02 0.000E+00

     total cpu time spent up to now is     4520.3 secs

     total energy              =   -7919.38490735 Ry
     Harris-Foulkes estimate   =   -7919.38491065 Ry
     estimated scf accuracy    <       0.00001861 Ry

     iteration # 48     ecut=    44.10 Ry     beta=0.05
     CG style diagonalization
     ethr =  5.61E-09,  avg # of iterations =  3.0

     negative rho (up, down):  2.275E-02 0.000E+00

     total cpu time spent up to now is     4597.9 secs

     total energy              =   -7919.38490925 Ry
     Harris-Foulkes estimate   =   -7919.38490872 Ry
     estimated scf accuracy    <       0.00000874 Ry

     iteration # 49     ecut=    44.10 Ry     beta=0.05
     CG style diagonalization
     ethr =  2.63E-09,  avg # of iterations =  3.0

     negative rho (up, down):  2.217E-02 0.000E+00

     total cpu time spent up to now is     4674.5 secs

     total energy              =   -7919.38490861 Ry
     Harris-Foulkes estimate   =   -7919.38490947 Ry
     estimated scf accuracy    <       0.00000803 Ry

     iteration # 50     ecut=    44.10 Ry     beta=0.05
     CG style diagonalization
     ethr =  2.42E-09,  avg # of iterations =  3.0

     negative rho (up, down):  2.249E-02 0.000E+00

     total cpu time spent up to now is     4751.3 secs

     total energy              =   -7919.38490847 Ry
     Harris-Foulkes estimate   =   -7919.38490903 Ry
     estimated scf accuracy    <       0.00000478 Ry

     iteration # 51     ecut=    44.10 Ry     beta=0.05
     CG style diagonalization
     ethr =  1.44E-09,  avg # of iterations =  3.0

     negative rho (up, down):  2.274E-02 0.000E+00

     total cpu time spent up to now is     4827.8 secs

     total energy              =   -7919.38490880 Ry
     Harris-Foulkes estimate   =   -7919.38490861 Ry
     estimated scf accuracy    <       0.00000329 Ry

     iteration # 52     ecut=    44.10 Ry     beta=0.05
     CG style diagonalization
     ethr =  9.91E-10,  avg # of iterations =  3.0

     negative rho (up, down):  2.257E-02 0.000E+00

     total cpu time spent up to now is     4903.8 secs

     total energy              =   -7919.38490842 Ry
     Harris-Foulkes estimate   =   -7919.38490889 Ry
     estimated scf accuracy    <       0.00000264 Ry

     iteration # 53     ecut=    44.10 Ry     beta=0.05
     CG style diagonalization
     ethr =  7.96E-10,  avg # of iterations =  3.0

     negative rho (up, down):  2.259E-02 0.000E+00

     total cpu time spent up to now is     4980.6 secs

     total energy              =   -7919.38490855 Ry
     Harris-Foulkes estimate   =   -7919.38490861 Ry
     estimated scf accuracy    <       0.00000181 Ry

     iteration # 54     ecut=    44.10 Ry     beta=0.05
     CG style diagonalization
     ethr =  5.45E-10,  avg # of iterations =  3.0

     negative rho (up, down):  2.254E-02 0.000E+00

     total cpu time spent up to now is     5058.1 secs

     total energy              =   -7919.38490894 Ry
     Harris-Foulkes estimate   =   -7919.38490861 Ry
     estimated scf accuracy    <       0.00000096 Ry

     iteration # 55     ecut=    44.10 Ry     beta=0.05
     CG style diagonalization
     ethr =  2.88E-10,  avg # of iterations =  3.0

     negative rho (up, down):  2.253E-02 0.000E+00

     total cpu time spent up to now is     5134.1 secs

     total energy              =   -7919.38490924 Ry
     Harris-Foulkes estimate   =   -7919.38490897 Ry
     estimated scf accuracy    <       0.00000072 Ry

     iteration # 56     ecut=    44.10 Ry     beta=0.05
     CG style diagonalization
     ethr =  2.18E-10,  avg # of iterations =  3.0

     negative rho (up, down):  2.265E-02 0.000E+00

     total cpu time spent up to now is     5210.9 secs

     total energy              =   -7919.38490943 Ry
     Harris-Foulkes estimate   =   -7919.38490925 Ry
     estimated scf accuracy    <       0.00000074 Ry

     iteration # 57     ecut=    44.10 Ry     beta=0.05
     CG style diagonalization
     ethr =  2.18E-10,  avg # of iterations =  3.1

     negative rho (up, down):  2.260E-02 0.000E+00

     total cpu time spent up to now is     5289.9 secs

     total energy              =   -7919.38490967 Ry
     Harris-Foulkes estimate   =   -7919.38490948 Ry
     estimated scf accuracy    <       0.00000057 Ry

     iteration # 58     ecut=    44.10 Ry     beta=0.05
     CG style diagonalization
     ethr =  1.71E-10,  avg # of iterations =  3.0

     negative rho (up, down):  2.251E-02 0.000E+00

     total cpu time spent up to now is     5367.3 secs

     total energy              =   -7919.38490983 Ry
     Harris-Foulkes estimate   =   -7919.38490968 Ry
     estimated scf accuracy    <       0.00000037 Ry

     iteration # 59     ecut=    44.10 Ry     beta=0.05
     CG style diagonalization
     ethr =  1.12E-10,  avg # of iterations =  3.0

     negative rho (up, down):  2.244E-02 0.000E+00

     total cpu time spent up to now is     5444.1 secs

     total energy              =   -7919.38490995 Ry
     Harris-Foulkes estimate   =   -7919.38490983 Ry
     estimated scf accuracy    <       0.00000029 Ry

     iteration # 60     ecut=    44.10 Ry     beta=0.05
     CG style diagonalization
     ethr =  8.86E-11,  avg # of iterations =  3.0

     negative rho (up, down):  2.242E-02 0.000E+00

     total cpu time spent up to now is     5520.3 secs

     total energy              =   -7919.38491006 Ry
     Harris-Foulkes estimate   =   -7919.38490995 Ry
     estimated scf accuracy    <       0.00000023 Ry

     iteration # 61     ecut=    44.10 Ry     beta=0.05
     CG style diagonalization
     ethr =  6.93E-11,  avg # of iterations =  3.0

     negative rho (up, down):  2.241E-02 0.000E+00

     total cpu time spent up to now is     5597.7 secs

     total energy              =   -7919.38491019 Ry
     Harris-Foulkes estimate   =   -7919.38491007 Ry
     estimated scf accuracy    <       0.00000016 Ry

     iteration # 62     ecut=    44.10 Ry     beta=0.05
     CG style diagonalization
     ethr =  4.81E-11,  avg # of iterations =  3.0

     negative rho (up, down):  2.243E-02 0.000E+00

     total cpu time spent up to now is     5674.0 secs

     total energy              =   -7919.38491032 Ry
     Harris-Foulkes estimate   =   -7919.38491019 Ry
     estimated scf accuracy    <       0.00000011 Ry

     iteration # 63     ecut=    44.10 Ry     beta=0.05
     CG style diagonalization
     ethr =  3.31E-11,  avg # of iterations =  3.0

     negative rho (up, down):  2.243E-02 0.000E+00

     total cpu time spent up to now is     5750.7 secs

     total energy              =   -7919.38491045 Ry
     Harris-Foulkes estimate   =   -7919.38491032 Ry
     estimated scf accuracy    <       0.00000009 Ry

     iteration # 64     ecut=    44.10 Ry     beta=0.05
     CG style diagonalization
     ethr =  2.74E-11,  avg # of iterations =  3.0

     negative rho (up, down):  2.240E-02 0.000E+00

     total cpu time spent up to now is     5827.4 secs

     total energy              =   -7919.38491057 Ry
     Harris-Foulkes estimate   =   -7919.38491045 Ry
     estimated scf accuracy    <       0.00000009 Ry

     iteration # 65     ecut=    44.10 Ry     beta=0.05
     CG style diagonalization
     ethr =  2.64E-11,  avg # of iterations =  3.0

     negative rho (up, down):  2.238E-02 0.000E+00

     total cpu time spent up to now is     5903.8 secs

     total energy              =   -7919.38491067 Ry
     Harris-Foulkes estimate   =   -7919.38491057 Ry
     estimated scf accuracy    <       0.00000007 Ry

     iteration # 66     ecut=    44.10 Ry     beta=0.05
     CG style diagonalization
     ethr =  2.24E-11,  avg # of iterations =  3.0

     negative rho (up, down):  2.245E-02 0.000E+00

     total cpu time spent up to now is     5980.2 secs

     End of self-consistent calculation

          k = 0.0000 0.0000 0.0000 ( 43889 PWs)   bands (ev):

   -91.7984 -91.2278 -91.2108 -91.2105 -91.1888 -91.1836 -83.8447 -83.8336
   -83.4740 -83.4492 -83.4421 -83.4364 -83.4324 -83.4126 -83.3870 -83.3798
   -83.3717 -83.3662 -55.4480 -55.2413 -55.1976 -54.7733 -54.7626 -54.7525
   -54.7259 -54.7228 -54.7144 -54.6939 -54.6702 -54.6666 -54.6567 -54.6545
   -54.6468 -54.6248 -54.6202 -54.6165 -49.8631 -49.7692 -49.5818 -49.5481
   -49.4101 -49.3924 -49.3316 -49.3160 -49.3009 -49.2967 -49.2728 -49.2666
   -49.2458 -49.2244 -49.2140 -49.2129 -49.1918 -49.1754 -49.1525 -49.1347
   -49.1235 -49.1136 -49.1058 -49.0969 -49.0925 -49.0806 -49.0716 -49.0647
   -49.0540 -49.0382 -49.0096 -48.9948 -48.9733 -48.9642 -48.9552 -48.9344
   -13.1766  -5.9471  -5.3752  -5.2865  -5.1936  -5.1744  -5.0757  -4.9866
    -4.9724  -4.8716  -4.8202  -4.7724  -4.6713  -4.6321  -4.5543  -4.5301
    -4.4669  -4.4411  -4.3034  -4.2305  -4.1971  -4.1044  -3.9952  -3.9397
    -3.9312  -3.8523  -3.7642  -3.7094  -3.5882  -3.5518  -3.4982  -3.3734
    -3.3507  -3.2922  -3.2187  -3.1582  -3.0927  -3.0453  -3.0165  -2.8941
    -2.8086  -2.7986  -2.6716  -2.6273  -2.5200  -2.4543  -2.3844  -2.3335
    -2.2837  -2.2173  -2.1321  -2.1217  -2.0857  -1.9701  -1.9290  -1.8733
    -1.8457  -1.7867  -1.7315  -1.6508  -1.5563  -1.5159  -1.4700  -1.4537
    -1.3783  -1.3261  -1.2798  -1.2072  -1.1735  -1.1240  -1.0466  -1.0131
    -0.9237  -0.9123  -0.8886  -0.8600  -0.8318  -0.7859  -0.7552  -0.7259
    -0.6891  -0.6566  -0.5951  -0.5385  -0.5167  -0.4942  -0.4279  -0.4115
    -0.3802  -0.3652  -0.3105  -0.2840  -0.2391  -0.2138  -0.1692  -0.1198
    -0.1026  -0.0204   0.4732   1.4816   1.7774   1.8484   2.0336   2.1234

          k = 0.0000 0.0233 0.0000 ( 43809 PWs)   bands (ev):

   -91.7984 -91.2278 -91.2108 -91.2105 -91.1888 -91.1836 -83.8447 -83.8336
   -83.4739 -83.4491 -83.4424 -83.4365 -83.4323 -83.4124 -83.3870 -83.3797
   -83.3717 -83.3662 -55.4479 -55.2413 -55.1976 -54.7734 -54.7626 -54.7525
   -54.7259 -54.7227 -54.7144 -54.6938 -54.6701 -54.6666 -54.6565 -54.6544
   -54.6468 -54.6248 -54.6202 -54.6165 -49.8626 -49.7688 -49.5825 -49.5480
   -49.4104 -49.3930 -49.3477 -49.3191 -49.2933 -49.2787 -49.2653 -49.2635
   -49.2428 -49.2244 -49.2120 -49.2083 -49.1917 -49.1745 -49.1572 -49.1350
   -49.1260 -49.1164 -49.1068 -49.0986 -49.0930 -49.0816 -49.0723 -49.0646
   -49.0536 -49.0382 -49.0095 -48.9951 -48.9728 -48.9644 -48.9553 -48.9344
   -13.1756  -5.8621  -5.3309  -5.2888  -5.1976  -5.1196  -5.0381  -4.9870
    -4.9481  -4.8428  -4.8083  -4.7464  -4.6722  -4.6251  -4.5625  -4.5239
    -4.4517  -4.4084  -4.3410  -4.2256  -4.1972  -4.1195  -4.0009  -3.9655
    -3.9209  -3.8659  -3.7824  -3.6900  -3.6194  -3.5637  -3.4710  -3.4438
    -3.4038  -3.3085  -3.2482  -3.1733  -3.1288  -3.0728  -3.0208  -2.9307
    -2.8346  -2.7862  -2.6648  -2.6361  -2.5365  -2.4753  -2.4198  -2.3659
    -2.3174  -2.2014  -2.1517  -2.1129  -2.0741  -2.0380  -2.0138  -1.9375
    -1.9004  -1.8518  -1.8123  -1.7233  -1.6800  -1.6259  -1.5537  -1.5279
    -1.4400  -1.3964  -1.3305  -1.2721  -1.2076  -1.1858  -1.1347  -1.0822
    -1.0404  -1.0058  -0.9294  -0.8901  -0.8433  -0.7823  -0.7237  -0.6844
    -0.6436  -0.6078  -0.5726  -0.5098  -0.4864  -0.4229  -0.4003  -0.3773
    -0.3174  -0.2690  -0.2208  -0.1860  -0.1455  -0.0615  -0.0017   0.0666
     0.3159   0.3710   0.6510   1.3787   1.6460   1.6766   2.1012   2.4838

          k = 0.0000 0.0466 0.0000 ( 43792 PWs)   bands (ev):

   -91.7984 -91.2278 -91.2108 -91.2105 -91.1888 -91.1836 -83.8447 -83.8336
   -83.4737 -83.4490 -83.4427 -83.4369 -83.4322 -83.4121 -83.3870 -83.3797
   -83.3717 -83.3662 -55.4480 -55.2413 -55.1976 -54.7735 -54.7628 -54.7527
   -54.7259 -54.7226 -54.7143 -54.6938 -54.6701 -54.6665 -54.6562 -54.6542
   -54.6468 -54.6248 -54.6202 -54.6165 -49.8622 -49.7688 -49.5849 -49.5492
   -49.4112 -49.3944 -49.3616 -49.3325 -49.2781 -49.2611 -49.2572 -49.2514
   -49.2345 -49.2248 -49.2069 -49.2008 -49.1878 -49.1791 -49.1656 -49.1382
   -49.1366 -49.1219 -49.1080 -49.1045 -49.0931 -49.0836 -49.0736 -49.0651
   -49.0533 -49.0384 -49.0092 -48.9954 -48.9724 -48.9646 -48.9551 -48.9346
   -13.1735  -5.6310  -5.3368  -5.2118  -5.1265  -5.0720  -4.9785  -4.9453
    -4.9128  -4.8154  -4.7648  -4.6892  -4.6684  -4.6193  -4.5771  -4.5185
    -4.4737  -4.4022  -4.3255  -4.2202  -4.2053  -4.1325  -4.0459  -3.9984
    -3.9475  -3.8837  -3.8150  -3.7408  -3.6364  -3.6019  -3.5412  -3.4775
    -3.4095  -3.3598  -3.3298  -3.2529  -3.2023  -3.1229  -3.0302  -2.9881
    -2.8566  -2.7781  -2.7168  -2.6519  -2.5932  -2.5602  -2.4874  -2.4105
    -2.3645  -2.2901  -2.2408  -2.2195  -2.1640  -2.1144  -2.0354  -2.0027
    -1.9558  -1.9273  -1.8661  -1.8249  -1.7952  -1.7586  -1.6471  -1.5625
    -1.4999  -1.4439  -1.3870  -1.3280  -1.2733  -1.2163  -1.1762  -1.1067
    -1.0660  -1.0123  -0.9643  -0.8995  -0.8705  -0.8137  -0.7316  -0.7063
    -0.6632  -0.6157  -0.5833  -0.5324  -0.4516  -0.4189  -0.3648  -0.2809
    -0.2505  -0.2057  -0.1787  -0.0982  -0.0638   0.0263   0.1876   0.3315
     0.9031   1.2864   1.3781   1.5500   1.5816   1.9837   2.6170   3.3006

          k = 0.0000-0.0700 0.0000 ( 43744 PWs)   bands (ev):

   -91.7984 -91.2278 -91.2108 -91.2105 -91.1888 -91.1836 -83.8446 -83.8336
   -83.4736 -83.4489 -83.4428 -83.4372 -83.4321 -83.4120 -83.3870 -83.3797
   -83.3717 -83.3662 -55.4480 -55.2413 -55.1977 -54.7736 -54.7629 -54.7528
   -54.7259 -54.7226 -54.7143 -54.6938 -54.6700 -54.6665 -54.6561 -54.6541
   -54.6468 -54.6248 -54.6202 -54.6165 -49.8619 -49.7685 -49.5859 -49.5494
   -49.4113 -49.3956 -49.3659 -49.3366 -49.2745 -49.2599 -49.2520 -49.2367
   -49.2295 -49.2228 -49.2046 -49.1995 -49.1897 -49.1747 -49.1672 -49.1503
   -49.1389 -49.1231 -49.1098 -49.1062 -49.0927 -49.0845 -49.0737 -49.0645
   -49.0530 -49.0384 -49.0096 -48.9958 -48.9722 -48.9651 -48.9554 -48.9343
   -13.1725  -5.4031  -5.3671  -5.1934  -5.1348  -5.0581  -4.9350  -4.8932
    -4.8741  -4.8432  -4.7236  -4.7046  -4.6687  -4.6043  -4.5657  -4.5228
    -4.4968  -4.4408  -4.3014  -4.2241  -4.1697  -4.1363  -4.0921  -4.0558
    -3.9467  -3.8658  -3.8385  -3.7495  -3.6779  -3.6633  -3.5918  -3.4785
    -3.4493  -3.3684  -3.3426  -3.2643  -3.1988  -3.1071  -3.0620  -3.0008
    -2.9429  -2.8092  -2.7313  -2.6614  -2.6159  -2.6013  -2.5288  -2.4691
    -2.4243  -2.3535  -2.3068  -2.2264  -2.1584  -2.1353  -2.0769  -2.0112
    -1.9607  -1.9177  -1.8831  -1.8251  -1.7718  -1.7613  -1.6977  -1.5893
    -1.5801  -1.4612  -1.4188  -1.3414  -1.2756  -1.2471  -1.2044  -1.1048
    -1.0405  -1.0110  -0.9793  -0.9553  -0.8251  -0.7996  -0.7692  -0.7434
    -0.6896  -0.5899  -0.5707  -0.5484  -0.4521  -0.4096  -0.3886  -0.2744
    -0.2178  -0.1576  -0.0792  -0.0608  -0.0126   0.1033   0.2013   0.2694
     0.9445   1.5133   1.8775   2.2545   2.3819   2.4396   2.6109   2.7075

          k = 0.0202 0.0350 0.0000 ( 43807 PWs)   bands (ev):

   -91.7984 -91.2278 -91.2108 -91.2105 -91.1888 -91.1836 -83.8446 -83.8336
   -83.4737 -83.4490 -83.4426 -83.4369 -83.4322 -83.4121 -83.3870 -83.3798
   -83.3718 -83.3661 -55.4480 -55.2413 -55.1976 -54.7736 -54.7628 -54.7528
   -54.7259 -54.7227 -54.7144 -54.6936 -54.6700 -54.6665 -54.6565 -54.6541
   -54.6468 -54.6248 -54.6202 -54.6165 -49.8642 -49.7671 -49.5843 -49.5475
   -49.4118 -49.3930 -49.3639 -49.3362 -49.2799 -49.2624 -49.2577 -49.2501
   -49.2413 -49.2260 -49.2068 -49.1949 -49.1848 -49.1778 -49.1652 -49.1379
   -49.1347 -49.1205 -49.1090 -49.1019 -49.0941 -49.0824 -49.0746 -49.0691
   -49.0520 -49.0384 -49.0116 -48.9933 -48.9726 -48.9646 -48.9555 -48.9344
   -13.1741  -5.6940  -5.3264  -5.2285  -5.1250  -5.0634  -5.0338  -4.9425
    -4.9039  -4.8225  -4.7983  -4.7120  -4.6788  -4.6174  -4.5725  -4.5238
    -4.4803  -4.4024  -4.3505  -4.2250  -4.1898  -4.1031  -4.0331  -3.9926
    -3.9751  -3.9063  -3.8004  -3.6886  -3.6456  -3.5804  -3.5151  -3.4726
    -3.4086  -3.3278  -3.2858  -3.2565  -3.1898  -3.1107  -3.0338  -2.9733
    -2.9233  -2.7870  -2.7173  -2.6527  -2.5735  -2.4786  -2.4356  -2.4055
    -2.3707  -2.2680  -2.2480  -2.1968  -2.1427  -2.0847  -2.0421  -2.0029
    -1.9130  -1.8649  -1.8412  -1.7837  -1.7345  -1.6916  -1.6277  -1.5285
    -1.4892  -1.4082  -1.3613  -1.2958  -1.2870  -1.2545  -1.1905  -1.1408
    -1.0488  -0.9664  -0.9552  -0.9247  -0.8715  -0.8074  -0.7869  -0.7323
    -0.6830  -0.5888  -0.5772  -0.5347  -0.4689  -0.4264  -0.4055  -0.3216
    -0.2993  -0.2453  -0.1333  -0.1011  -0.0805   0.1058   0.2005   0.3710
     0.5759   1.0135   1.1203   1.3369   1.6293   2.1986   2.3713   2.8818

          k = 0.0202-0.0816 0.0000 ( 43761 PWs)   bands (ev):

   -91.7984 -91.2278 -91.2108 -91.2105 -91.1888 -91.1836 -83.8446 -83.8337
   -83.4736 -83.4489 -83.4427 -83.4372 -83.4321 -83.4120 -83.3870 -83.3798
   -83.3718 -83.3661 -55.4480 -55.2413 -55.1976 -54.7737 -54.7629 -54.7528
   -54.7259 -54.7226 -54.7143 -54.6937 -54.6700 -54.6665 -54.6562 -54.6540
   -54.6468 -54.6248 -54.6202 -54.6165 -49.8640 -49.7671 -49.5858 -49.5484
   -49.4118 -49.3940 -49.3672 -49.3392 -49.2762 -49.2633 -49.2543 -49.2399
   -49.2285 -49.2184 -49.2055 -49.1963 -49.1869 -49.1741 -49.1668 -49.1503
   -49.1377 -49.1229 -49.1111 -49.1038 -49.0935 -49.0841 -49.0750 -49.0689
   -49.0517 -49.0380 -49.0114 -48.9936 -48.9716 -48.9647 -48.9556 -48.9340
   -13.1726  -5.4286  -5.3283  -5.1638  -5.1174  -5.0267  -4.9795  -4.9317
    -4.8718  -4.8137  -4.7509  -4.7180  -4.6767  -4.6103  -4.5861  -4.5246
    -4.4898  -4.4372  -4.3214  -4.2475  -4.1629  -4.1269  -4.0694  -4.0399
    -3.9593  -3.8870  -3.8124  -3.7325  -3.7026  -3.6376  -3.5771  -3.4748
    -3.4268  -3.3630  -3.3227  -3.2650  -3.2235  -3.1374  -3.0574  -3.0086
    -2.9545  -2.8076  -2.7550  -2.6923  -2.6174  -2.5389  -2.5076  -2.4438
    -2.4103  -2.3903  -2.3598  -2.2390  -2.1627  -2.1349  -2.0801  -2.0405
    -1.9837  -1.9414  -1.8944  -1.8212  -1.7405  -1.7225  -1.6238  -1.5998
    -1.5456  -1.4307  -1.4061  -1.3158  -1.2665  -1.2503  -1.1882  -1.1388
    -1.1030  -1.0488  -0.9832  -0.9454  -0.8952  -0.7939  -0.7809  -0.7250
    -0.6364  -0.6244  -0.5832  -0.5146  -0.4584  -0.4218  -0.3882  -0.3096
    -0.2270  -0.1842  -0.0892  -0.0516   0.0187   0.2195   0.2784   0.4556
     0.8607   1.2309   1.5500   2.2226   2.3895   2.4617   2.6144   3.0130

          k = 0.0404-0.0700 0.0000 ( 43728 PWs)   bands (ev):

   -91.7984 -91.2278 -91.2109 -91.2105 -91.1888 -91.1836 -83.8446 -83.8337
   -83.4737 -83.4489 -83.4427 -83.4368 -83.4322 -83.4121 -83.3870 -83.3800
   -83.3719 -83.3658 -55.4479 -55.2413 -55.1976 -54.7738 -54.7630 -54.7528
   -54.7258 -54.7227 -54.7144 -54.6936 -54.6699 -54.6666 -54.6562 -54.6539
   -54.6468 -54.6248 -54.6202 -54.6165 -49.8669 -49.7635 -49.5862 -49.5457
   -49.4125 -49.3905 -49.3637 -49.3389 -49.2812 -49.2687 -49.2577 -49.2497
   -49.2364 -49.2165 -49.2054 -49.1906 -49.1803 -49.1683 -49.1645 -49.1380
   -49.1356 -49.1257 -49.1093 -49.0995 -49.0949 -49.0860 -49.0820 -49.0716
   -49.0509 -49.0377 -49.0144 -48.9907 -48.9714 -48.9650 -48.9565 -48.9339
   -13.1722  -5.3071  -5.2573  -5.1491  -5.0748  -5.0338  -4.9771  -4.9605
    -4.8815  -4.8280  -4.7741  -4.7527  -4.6854  -4.6585  -4.5799  -4.5068
    -4.4668  -4.4360  -4.3074  -4.2283  -4.1771  -4.1110  -4.0864  -4.0221
    -3.9607  -3.8917  -3.8022  -3.7743  -3.6815  -3.6331  -3.5585  -3.4643
    -3.4162  -3.3839  -3.3419  -3.2747  -3.2501  -3.1683  -3.0960  -3.0510
    -2.8948  -2.8534  -2.7909  -2.7411  -2.6605  -2.6149  -2.5411  -2.5101
    -2.4633  -2.3582  -2.2929  -2.2716  -2.2090  -2.1910  -2.1317  -2.0194
    -1.9406  -1.9225  -1.8883  -1.7942  -1.7702  -1.7444  -1.6984  -1.6190
    -1.5203  -1.4697  -1.4116  -1.3540  -1.2644  -1.2141  -1.2094  -1.1664
    -1.1160  -1.0714  -1.0118  -0.9591  -0.8863  -0.8244  -0.7713  -0.6608
    -0.6175  -0.5666  -0.5237  -0.4569  -0.4417  -0.4250  -0.3794  -0.2823
    -0.2435  -0.2147  -0.1175   0.0078   0.0612   0.1551   0.4108   0.5902
     1.1159   1.2966   1.4489   1.8152   3.0312   3.0796   3.2079   3.2529

          k =-0.0202 0.0117 0.0000 ( 43809 PWs)   bands (ev):

   -91.7984 -91.2278 -91.2108 -91.2105 -91.1888 -91.1836 -83.8446 -83.8336
   -83.4740 -83.4491 -83.4421 -83.4364 -83.4324 -83.4126 -83.3870 -83.3798
   -83.3718 -83.3661 -55.4479 -55.2413 -55.1976 -54.7734 -54.7626 -54.7525
   -54.7259 -54.7227 -54.7144 -54.6938 -54.6701 -54.6666 -54.6565 -54.6544
   -54.6468 -54.6248 -54.6202 -54.6165 -49.8641 -49.7670 -49.5826 -49.5466
   -49.4107 -49.3910 -49.3305 -49.3163 -49.3063 -49.2939 -49.2704 -49.2653
   -49.2434 -49.2292 -49.2129 -49.2022 -49.1874 -49.1745 -49.1521 -49.1343
   -49.1253 -49.1145 -49.1065 -49.0960 -49.0926 -49.0815 -49.0727 -49.0691
   -49.0529 -49.0379 -49.0114 -48.9932 -48.9729 -48.9645 -48.9557 -48.9343
   -13.1757  -5.8579  -5.3791  -5.2407  -5.1761  -5.1391  -5.0713  -4.9543
    -4.9382  -4.8479  -4.7922  -4.7758  -4.6930  -4.6141  -4.5719  -4.4950
    -4.4686  -4.4170  -4.3142  -4.2390  -4.1743  -4.1005  -4.0062  -3.9955
    -3.9096  -3.8539  -3.7761  -3.7085  -3.6069  -3.5487  -3.4805  -3.4492
    -3.3843  -3.3013  -3.2339  -3.2024  -3.1313  -3.0406  -2.9819  -2.9115
    -2.8270  -2.7824  -2.7213  -2.6820  -2.5320  -2.4649  -2.4340  -2.4195
    -2.3406  -2.1973  -2.1810  -2.1444  -2.1019  -2.0502  -2.0169  -1.9318
    -1.9047  -1.8487  -1.7656  -1.7288  -1.6850  -1.6612  -1.5881  -1.5156
    -1.4366  -1.3883  -1.3452  -1.2674  -1.2316  -1.1683  -1.1319  -1.0922
    -1.0426  -0.9895  -0.9562  -0.8536  -0.8250  -0.7369  -0.7167  -0.6318
    -0.6097  -0.5909  -0.5431  -0.5141  -0.4599  -0.4321  -0.3788  -0.3167
    -0.3116  -0.2781  -0.2393  -0.1592  -0.1228  -0.0732  -0.0197   0.0552
     0.2045   0.3325   0.7087   1.3139   1.6366   1.6833   2.1620   2.4916

          k = 0.0202 0.0117 0.0000 ( 43809 PWs)   bands (ev):

   -91.7984 -91.2278 -91.2108 -91.2105 -91.1888 -91.1836 -83.8446 -83.8336
   -83.4739 -83.4491 -83.4423 -83.4365 -83.4323 -83.4124 -83.3870 -83.3798
   -83.3718 -83.3660 -55.4480 -55.2413 -55.1976 -54.7734 -54.7626 -54.7526
   -54.7259 -54.7227 -54.7144 -54.6937 -54.6701 -54.6666 -54.6566 -54.6543
   -54.6468 -54.6248 -54.6202 -54.6165 -49.8641 -49.7670 -49.5825 -49.5466
   -49.4111 -49.3915 -49.3499 -49.3242 -49.2922 -49.2779 -49.2646 -49.2609
   -49.2491 -49.2294 -49.2122 -49.1983 -49.1878 -49.1738 -49.1574 -49.1343
   -49.1252 -49.1171 -49.1072 -49.0972 -49.0937 -49.0813 -49.0731 -49.0691
   -49.0526 -49.0383 -49.0114 -48.9933 -48.9728 -48.9646 -48.9556 -48.9343
   -13.1756  -5.8565  -5.3498  -5.2784  -5.1672  -5.1219  -5.0611  -4.9839
    -4.9312  -4.8495  -4.8026  -4.7555  -4.6754  -4.6298  -4.5711  -4.5097
    -4.4911  -4.3970  -4.3122  -4.2285  -4.1861  -4.1096  -4.0097  -3.9856
    -3.9299  -3.8851  -3.7744  -3.6990  -3.5950  -3.5599  -3.4960  -3.4488
    -3.3736  -3.3118  -3.2170  -3.1937  -3.1173  -3.0746  -3.0023  -2.9273
    -2.8567  -2.8057  -2.7017  -2.6818  -2.5189  -2.4705  -2.4048  -2.3822
    -2.3143  -2.2236  -2.2104  -2.1365  -2.1131  -2.0176  -1.9570  -1.9056
    -1.8525  -1.8241  -1.7853  -1.7368  -1.6381  -1.6160  -1.5441  -1.4969
    -1.4031  -1.3688  -1.3118  -1.2839  -1.2374  -1.2127  -1.1442  -1.0676
    -1.0171  -0.9740  -0.9403  -0.9161  -0.8582  -0.8238  -0.7694  -0.6722
    -0.6374  -0.5897  -0.5799  -0.5357  -0.5091  -0.4597  -0.4086  -0.3512
    -0.3012  -0.2613  -0.2187  -0.1993  -0.1378  -0.1050  -0.0047   0.1013
     0.2546   0.4000   0.7040   1.3076   1.6554   1.6842   2.2159   2.4420

          k =-0.0404 0.0233 0.0000 ( 43792 PWs)   bands (ev):

   -91.7984 -91.2278 -91.2109 -91.2105 -91.1888 -91.1836 -83.8446 -83.8337
   -83.4740 -83.4491 -83.4422 -83.4363 -83.4323 -83.4125 -83.3870 -83.3800
   -83.3719 -83.3658 -55.4479 -55.2413 -55.1976 -54.7736 -54.7629 -54.7526
   -54.7257 -54.7228 -54.7145 -54.6937 -54.6700 -54.6666 -54.6563 -54.6543
   -54.6468 -54.6248 -54.6202 -54.6165 -49.8670 -49.7637 -49.5850 -49.5445
   -49.4116 -49.3887 -49.3296 -49.3205 -49.3097 -49.2925 -49.2687 -49.2611
   -49.2415 -49.2331 -49.2115 -49.1985 -49.1738 -49.1678 -49.1519 -49.1358
   -49.1295 -49.1168 -49.1074 -49.0969 -49.0927 -49.0850 -49.0816 -49.0708
   -49.0519 -49.0374 -49.0144 -48.9906 -48.9722 -48.9650 -48.9567 -48.9342
   -13.1737  -5.6170  -5.3867  -5.1749  -5.1468  -5.0278  -4.9979  -4.8986
    -4.8905  -4.8413  -4.7883  -4.7531  -4.7008  -4.6216  -4.5373  -4.5208
    -4.4467  -4.3779  -4.3322  -4.2526  -4.1450  -4.1152  -4.0532  -4.0099
    -3.9315  -3.8592  -3.8146  -3.7435  -3.6352  -3.5712  -3.5217  -3.4482
    -3.3991  -3.3612  -3.3356  -3.2467  -3.1896  -3.0812  -3.0442  -2.9397
    -2.8623  -2.8074  -2.7537  -2.6907  -2.6088  -2.5712  -2.5424  -2.4719
    -2.4105  -2.3695  -2.3347  -2.2434  -2.1762  -2.1402  -2.0636  -2.0324
    -1.9594  -1.9030  -1.8787  -1.8475  -1.7768  -1.7043  -1.6711  -1.6285
    -1.4761  -1.4418  -1.3736  -1.3162  -1.2834  -1.2177  -1.1925  -1.1116
    -1.0516  -1.0270  -0.9597  -0.9060  -0.8237  -0.7856  -0.6665  -0.6401
    -0.5884  -0.5516  -0.4985  -0.4588  -0.4344  -0.3856  -0.3355  -0.2861
    -0.2536  -0.2014  -0.1883  -0.1412  -0.0741   0.0399   0.1652   0.3527
     0.8505   1.2217   1.3451   1.5253   1.5787   2.0265   2.6438   3.3019

          k = 0.0404 0.0233 0.0000 ( 43792 PWs)   bands (ev):

   -91.7984 -91.2278 -91.2109 -91.2105 -91.1888 -91.1836 -83.8446 -83.8337
   -83.4737 -83.4490 -83.4426 -83.4369 -83.4322 -83.4121 -83.3871 -83.3800
   -83.3719 -83.3658 -55.4480 -55.2413 -55.1977 -54.7737 -54.7629 -54.7528
   -54.7258 -54.7227 -54.7145 -54.6934 -54.6699 -54.6666 -54.6566 -54.6540
   -54.6468 -54.6248 -54.6202 -54.6165 -49.8671 -49.7638 -49.5845 -49.5448
   -49.4128 -49.3902 -49.3664 -49.3406 -49.2818 -49.2664 -49.2587 -49.2518
   -49.2399 -49.2232 -49.2066 -49.1912 -49.1806 -49.1666 -49.1628 -49.1378
   -49.1341 -49.1241 -49.1085 -49.0992 -49.0964 -49.0849 -49.0812 -49.0718
   -49.0506 -49.0384 -49.0145 -48.9905 -48.9723 -48.9648 -48.9567 -48.9343
   -13.1737  -5.6027  -5.3540  -5.2007  -5.0990  -5.0299  -5.0103  -4.9287
    -4.9086  -4.8393  -4.7695  -4.7311  -4.7072  -4.6005  -4.5814  -4.5137
    -4.4813  -4.4040  -4.3109  -4.2112  -4.1814  -4.1006  -4.0804  -4.0169
    -4.0007  -3.9087  -3.7829  -3.7249  -3.6173  -3.6120  -3.5139  -3.4688
    -3.4111  -3.3710  -3.3272  -3.2913  -3.2023  -3.1566  -3.0418  -2.9505
    -2.8769  -2.8437  -2.7691  -2.7178  -2.5697  -2.5215  -2.4600  -2.4022
    -2.3571  -2.3066  -2.2588  -2.1766  -2.1391  -2.0991  -2.0800  -1.9854
    -1.9351  -1.9030  -1.8327  -1.7655  -1.7433  -1.6614  -1.6168  -1.5452
    -1.5102  -1.4581  -1.4005  -1.3456  -1.2964  -1.2038  -1.1913  -1.1356
    -1.0644  -1.0102  -0.9452  -0.9308  -0.8874  -0.8282  -0.7428  -0.6934
    -0.6459  -0.6081  -0.5780  -0.5277  -0.4581  -0.4055  -0.3643  -0.3238
    -0.3052  -0.2443  -0.2082  -0.1401  -0.0166   0.0291   0.2198   0.3545
     0.8675   1.2456   1.3672   1.5432   1.5714   2.0628   2.6954   3.2550

          k = 0.0606-0.0350 0.0000 ( 43744 PWs)   bands (ev):

   -91.7984 -91.2278 -91.2109 -91.2105 -91.1888 -91.1836 -83.8446 -83.8337
   -83.4740 -83.4490 -83.4422 -83.4363 -83.4324 -83.4125 -83.3870 -83.3801
   -83.3720 -83.3656 -55.4479 -55.2412 -55.1977 -54.7737 -54.7630 -54.7526
   -54.7257 -54.7228 -54.7145 -54.6936 -54.6699 -54.6666 -54.6562 -54.6542
   -54.6468 -54.6248 -54.6202 -54.6165 -49.8681 -49.7621 -49.5858 -49.5433
   -49.4118 -49.3877 -49.3294 -49.3228 -49.3097 -49.2920 -49.2684 -49.2576
   -49.2418 -49.2338 -49.2106 -49.1982 -49.1732 -49.1544 -49.1502 -49.1367
   -49.1319 -49.1179 -49.1059 -49.1019 -49.0925 -49.0882 -49.0837 -49.0713
   -49.0515 -49.0370 -49.0160 -48.9898 -48.9717 -48.9657 -48.9575 -48.9337
   -13.1727  -5.4595  -5.2993  -5.1750  -5.1147  -5.0714  -4.9194  -4.8996
    -4.8852  -4.8152  -4.7896  -4.7540  -4.6789  -4.6347  -4.5779  -4.4973
    -4.4694  -4.3662  -4.3281  -4.2341  -4.1514  -4.0968  -4.0532  -4.0113
    -3.9852  -3.8872  -3.8468  -3.7569  -3.6115  -3.6004  -3.5359  -3.4846
    -3.4180  -3.4051  -3.3258  -3.2536  -3.2223  -3.1073  -3.0465  -2.9729
    -2.9103  -2.8740  -2.7554  -2.7187  -2.6631  -2.6346  -2.5735  -2.5348
    -2.4723  -2.4042  -2.3446  -2.2934  -2.2140  -2.1391  -2.0888  -2.0365
    -2.0031  -1.9278  -1.8859  -1.8324  -1.7853  -1.7762  -1.7358  -1.5935
    -1.5527  -1.4658  -1.4006  -1.2826  -1.2701  -1.2400  -1.1884  -1.1440
    -1.1074  -1.0420  -0.9798  -0.8762  -0.8210  -0.8044  -0.6738  -0.6222
    -0.6043  -0.5416  -0.4983  -0.4287  -0.4244  -0.3526  -0.3132  -0.2870
    -0.2554  -0.1696  -0.1215  -0.0884  -0.0453   0.1063   0.2460   0.2916
     0.8152   1.5234   1.8439   2.2585   2.3415   2.5312   2.5709   2.7048

          k =-0.0606-0.0350 0.0000 ( 43744 PWs)   bands (ev):

   -91.7984 -91.2278 -91.2109 -91.2105 -91.1888 -91.1836 -83.8446 -83.8337
   -83.4736 -83.4490 -83.4426 -83.4372 -83.4321 -83.4119 -83.3871 -83.3800
   -83.3720 -83.3656 -55.4480 -55.2413 -55.1977 -54.7738 -54.7630 -54.7530
   -54.7257 -54.7227 -54.7145 -54.6933 -54.6698 -54.6665 -54.6565 -54.6538
   -54.6468 -54.6248 -54.6203 -54.6165 -49.8683 -49.7622 -49.5851 -49.5438
   -49.4135 -49.3898 -49.3719 -49.3457 -49.2812 -49.2663 -49.2576 -49.2430
   -49.2284 -49.2166 -49.2072 -49.1922 -49.1757 -49.1654 -49.1531 -49.1489
   -49.1365 -49.1269 -49.1050 -49.1040 -49.0988 -49.0898 -49.0818 -49.0720
   -49.0501 -49.0385 -49.0159 -48.9898 -48.9721 -48.9651 -48.9574 -48.9339
   -13.1726  -5.3939  -5.2462  -5.2176  -5.1269  -5.0751  -4.9613  -4.9091
    -4.8622  -4.8352  -4.7767  -4.7378  -4.7223  -4.6056  -4.5521  -4.5136
    -4.4831  -4.3796  -4.3353  -4.1959  -4.1576  -4.1244  -4.1055  -4.0691
    -4.0253  -3.8991  -3.7643  -3.7522  -3.6884  -3.6408  -3.5044  -3.4917
    -3.4737  -3.4071  -3.3869  -3.3183  -3.2659  -3.1237  -3.0555  -2.9357
    -2.8884  -2.8585  -2.8070  -2.6595  -2.6400  -2.6289  -2.5430  -2.4439
    -2.4086  -2.2848  -2.2644  -2.2156  -2.1507  -2.1191  -2.0688  -1.9986
    -1.9119  -1.8899  -1.8547  -1.7909  -1.7752  -1.7048  -1.6865  -1.5781
    -1.5645  -1.4854  -1.4318  -1.3921  -1.2855  -1.2027  -1.1699  -1.1183
    -1.1097  -1.0516  -0.9544  -0.9155  -0.8574  -0.8053  -0.7912  -0.6955
    -0.6789  -0.5994  -0.5700  -0.5317  -0.4580  -0.3730  -0.3495  -0.3188
    -0.2945  -0.2272  -0.2119  -0.0757   0.0509   0.0991   0.2818   0.3144
     0.8518   1.4961   1.9114   2.2500   2.3038   2.5618   2.5920   2.7549

          k =-0.0202 0.0350 0.0000 ( 43807 PWs)   bands (ev):

   -91.7984 -91.2278 -91.2108 -91.2105 -91.1888 -91.1836 -83.8446 -83.8337
   -83.4739 -83.4490 -83.4424 -83.4364 -83.4324 -83.4124 -83.3870 -83.3798
   -83.3718 -83.3661 -55.4479 -55.2413 -55.1976 -54.7735 -54.7628 -54.7526
   -54.7259 -54.7227 -54.7144 -54.6938 -54.6701 -54.6666 -54.6563 -54.6543
   -54.6468 -54.6248 -54.6202 -54.6165 -49.8641 -49.7670 -49.5847 -49.5473
   -49.4110 -49.3917 -49.3465 -49.3200 -49.2944 -49.2831 -49.2662 -49.2606
   -49.2388 -49.2206 -49.2112 -49.2043 -49.1877 -49.1741 -49.1573 -49.1363
   -49.1283 -49.1187 -49.1078 -49.0982 -49.0929 -49.0833 -49.0736 -49.0692
   -49.0528 -49.0379 -49.0114 -48.9936 -48.9724 -48.9647 -48.9556 -48.9343
   -13.1741  -5.6993  -5.3396  -5.2403  -5.1251  -5.0928  -5.0264  -4.9302
    -4.9001  -4.8264  -4.7705  -4.7436  -4.6922  -4.6126  -4.5729  -4.4981
    -4.4418  -4.3858  -4.3352  -4.2461  -4.1505  -4.1388  -4.0141  -4.0002
    -3.9288  -3.8561  -3.8012  -3.7281  -3.6658  -3.5846  -3.5084  -3.4299
    -3.3956  -3.3731  -3.3093  -3.2374  -3.1544  -3.0926  -3.0586  -2.9753
    -2.8493  -2.7787  -2.7246  -2.6964  -2.5716  -2.5285  -2.4901  -2.4255
    -2.3257  -2.2973  -2.2298  -2.1955  -2.1372  -2.1296  -2.0950  -2.0140
    -1.9607  -1.9084  -1.8697  -1.8502  -1.7777  -1.7381  -1.6151  -1.5818
    -1.4619  -1.4066  -1.3674  -1.3113  -1.2609  -1.2055  -1.1568  -1.1447
    -1.0483  -1.0309  -0.9711  -0.9371  -0.8562  -0.8087  -0.7152  -0.6899
    -0.6102  -0.5899  -0.5392  -0.4770  -0.4318  -0.4054  -0.3489  -0.2836
    -0.2348  -0.2253  -0.1548  -0.0924  -0.0706   0.0013   0.2238   0.3953
     0.5511   1.0413   1.0856   1.3052   1.6352   2.1557   2.3504   2.8877

          k = 0.0404 0.0000 0.0000 ( 43807 PWs)   bands (ev):

   -91.7984 -91.2278 -91.2109 -91.2105 -91.1888 -91.1836 -83.8446 -83.8337
   -83.4739 -83.4490 -83.4424 -83.4365 -83.4323 -83.4124 -83.3870 -83.3800
   -83.3719 -83.3658 -55.4480 -55.2413 -55.1976 -54.7736 -54.7629 -54.7527
   -54.7258 -54.7227 -54.7145 -54.6936 -54.6699 -54.6666 -54.6565 -54.6542
   -54.6468 -54.6248 -54.6202 -54.6165 -49.8671 -49.7639 -49.5841 -49.5447
   -49.4118 -49.3891 -49.3509 -49.3298 -49.2912 -49.2797 -49.2668 -49.2607
   -49.2450 -49.2303 -49.2115 -49.1966 -49.1736 -49.1682 -49.1564 -49.1347
   -49.1274 -49.1203 -49.1076 -49.0969 -49.0945 -49.0847 -49.0810 -49.0711
   -49.0511 -49.0378 -49.0147 -48.9906 -48.9724 -48.9648 -48.9566 -48.9340
   -13.1742  -5.6822  -5.3619  -5.2355  -5.1266  -5.0770  -4.9775  -4.9485
    -4.8815  -4.8292  -4.7787  -4.7341  -4.7061  -4.6473  -4.5502  -4.5073
    -4.4800  -4.4038  -4.3087  -4.2367  -4.1573  -4.1061  -4.0834  -4.0104
    -3.9287  -3.8914  -3.7913  -3.7322  -3.6038  -3.5690  -3.4882  -3.4565
    -3.3955  -3.3628  -3.3031  -3.2305  -3.1715  -3.1115  -3.0359  -2.9467
    -2.8812  -2.8147  -2.7678  -2.7223  -2.5953  -2.5432  -2.4602  -2.4221
    -2.3917  -2.2922  -2.2275  -2.1780  -2.1345  -2.1112  -2.0454  -1.9648
    -1.9343  -1.9202  -1.8362  -1.7863  -1.7531  -1.7175  -1.6277  -1.5665
    -1.4918  -1.4392  -1.3722  -1.3138  -1.2682  -1.1848  -1.1641  -1.0940
    -1.0564  -1.0173  -0.9978  -0.9267  -0.8776  -0.8511  -0.7374  -0.6741
    -0.6512  -0.5550  -0.5006  -0.4697  -0.4348  -0.3954  -0.3609  -0.3027
    -0.2574  -0.2458  -0.2163  -0.1334  -0.0359   0.0856   0.2334   0.4053
     0.5334   0.9666   1.1128   1.2271   1.7012   2.2098   2.3215   2.9802

          k =-0.0202-0.0816 0.0000 ( 43761 PWs)   bands (ev):

   -91.7984 -91.2278 -91.2108 -91.2105 -91.1888 -91.1836 -83.8446 -83.8337
   -83.4737 -83.4489 -83.4427 -83.4368 -83.4322 -83.4121 -83.3870 -83.3798
   -83.3718 -83.3661 -55.4479 -55.2413 -55.1976 -54.7736 -54.7629 -54.7527
   -54.7259 -54.7227 -54.7144 -54.6938 -54.6700 -54.6665 -54.6561 -54.6541
   -54.6468 -54.6248 -54.6202 -54.6165 -49.8639 -49.7670 -49.5859 -49.5482
   -49.4113 -49.3933 -49.3616 -49.3340 -49.2794 -49.2661 -49.2572 -49.2500
   -49.2342 -49.2145 -49.2057 -49.1975 -49.1871 -49.1788 -49.1660 -49.1389
   -49.1368 -49.1240 -49.1095 -49.1023 -49.0930 -49.0846 -49.0746 -49.0690
   -49.0521 -49.0378 -49.0113 -48.9938 -48.9717 -48.9647 -48.9555 -48.9340
   -13.1726  -5.4395  -5.3149  -5.1987  -5.1142  -5.0324  -4.9800  -4.9173
    -4.8821  -4.8211  -4.7525  -4.7014  -4.6777  -4.6197  -4.5916  -4.5062
    -4.4672  -4.4250  -4.2913  -4.2258  -4.1779  -4.1342  -4.0604  -4.0361
    -3.9530  -3.8822  -3.8279  -3.7358  -3.7071  -3.6376  -3.5750  -3.4530
    -3.4321  -3.3698  -3.3327  -3.2746  -3.2092  -3.1329  -3.0936  -3.0104
    -2.9034  -2.8127  -2.7565  -2.7138  -2.6370  -2.5718  -2.5192  -2.4909
    -2.3863  -2.3379  -2.3048  -2.2692  -2.2060  -2.1406  -2.1167  -2.0375
    -1.9731  -1.9380  -1.8861  -1.8133  -1.7753  -1.7201  -1.6674  -1.6163
    -1.5104  -1.4718  -1.4178  -1.3512  -1.2406  -1.2170  -1.1810  -1.1558
    -1.1140  -1.0511  -0.9780  -0.9614  -0.8788  -0.8170  -0.7855  -0.6961
    -0.6335  -0.5811  -0.5659  -0.4834  -0.4706  -0.3964  -0.3391  -0.2985
    -0.2236  -0.1503  -0.0913  -0.0559   0.0318   0.1607   0.2625   0.4630
     0.8558   1.2798   1.5051   2.2937   2.3536   2.4915   2.5740   2.9899

          k = 0.0808-0.0233 0.0000 ( 43761 PWs)   bands (ev):

   -91.7984 -91.2278 -91.2109 -91.2105 -91.1888 -91.1836 -83.8446 -83.8337
   -83.4739 -83.4490 -83.4425 -83.4364 -83.4324 -83.4124 -83.3870 -83.3800
   -83.3719 -83.3658 -55.4479 -55.2413 -55.1976 -54.7737 -54.7630 -54.7527
   -54.7257 -54.7228 -54.7145 -54.6937 -54.6699 -54.6666 -54.6561 -54.6542
   -54.6468 -54.6248 -54.6202 -54.6165 -49.8670 -49.7636 -49.5860 -49.5452
   -49.4117 -49.3893 -49.3473 -49.3265 -49.2935 -49.2833 -49.2661 -49.2567
   -49.2399 -49.2248 -49.2095 -49.1987 -49.1738 -49.1678 -49.1579 -49.1371
   -49.1294 -49.1215 -49.1082 -49.0976 -49.0935 -49.0856 -49.0820 -49.0712
   -49.0515 -49.0373 -49.0143 -48.9908 -48.9717 -48.9651 -48.9565 -48.9338
   -13.1727  -5.4515  -5.3123  -5.1818  -5.1116  -5.0132  -4.9602  -4.9211
    -4.8768  -4.8150  -4.8116  -4.7465  -4.6806  -4.6251  -4.5691  -4.5152
    -4.4377  -4.4124  -4.2858  -4.2536  -4.1649  -4.0996  -4.0576  -4.0047
    -3.9632  -3.8937  -3.8280  -3.7622  -3.6513  -3.6292  -3.5334  -3.4387
    -3.4164  -3.3747  -3.3524  -3.2685  -3.2212  -3.1696  -3.0367  -2.9507
    -2.9289  -2.8293  -2.8013  -2.7155  -2.6696  -2.6181  -2.5794  -2.5182
    -2.4182  -2.3733  -2.3305  -2.2766  -2.2269  -2.1384  -2.1083  -2.0297
    -1.9514  -1.9325  -1.8855  -1.8352  -1.7895  -1.7165  -1.6953  -1.6299
    -1.5436  -1.4574  -1.3950  -1.3204  -1.2696  -1.2086  -1.2054  -1.1270
    -1.0986  -1.0631  -1.0349  -0.9590  -0.8551  -0.7939  -0.7329  -0.6630
    -0.5977  -0.5433  -0.5073  -0.4694  -0.4125  -0.3630  -0.3493  -0.2975
    -0.2314  -0.1653  -0.0948  -0.0671   0.0343   0.1217   0.3560   0.4768
     0.7580   1.2002   1.5778   2.2617   2.3632   2.4808   2.5903   3.0052

          k =-0.0606-0.0583 0.0000 ( 43761 PWs)   bands (ev):

   -91.7984 -91.2278 -91.2109 -91.2105 -91.1888 -91.1836 -83.8446 -83.8337
   -83.4737 -83.4490 -83.4426 -83.4369 -83.4322 -83.4121 -83.3871 -83.3800
   -83.3720 -83.3656 -55.4480 -55.2413 -55.1976 -54.7738 -54.7630 -54.7529
   -54.7257 -54.7227 -54.7145 -54.6934 -54.6698 -54.6666 -54.6564 -54.6539
   -54.6468 -54.6247 -54.6202 -54.6165 -49.8683 -49.7623 -49.5855 -49.5442
   -49.4130 -49.3889 -49.3664 -49.3420 -49.2813 -49.2694 -49.2584 -49.2512
   -49.2388 -49.2203 -49.2065 -49.1903 -49.1802 -49.1655 -49.1506 -49.1390
   -49.1357 -49.1275 -49.1054 -49.1030 -49.0975 -49.0897 -49.0824 -49.0718
   -49.0502 -49.0379 -49.0156 -48.9894 -48.9715 -48.9650 -48.9571 -48.9337
   -13.1727  -5.3857  -5.3333  -5.1984  -5.0848  -5.0167  -4.9833  -4.9116
    -4.8731  -4.8275  -4.7711  -4.7295  -4.7130  -4.6324  -4.5769  -4.5145
    -4.4815  -4.4116  -4.3130  -4.2265  -4.1731  -4.1208  -4.0746  -4.0476
    -3.9982  -3.8897  -3.7842  -3.7679  -3.6442  -3.6274  -3.5138  -3.4612
    -3.4318  -3.3957  -3.3523  -3.3115  -3.2415  -3.1590  -3.0734  -3.0296
    -2.8957  -2.8486  -2.7838  -2.7138  -2.6446  -2.5875  -2.5336  -2.4659
    -2.3613  -2.3230  -2.2879  -2.2211  -2.1581  -2.1424  -2.0845  -2.0446
    -1.9729  -1.9193  -1.8595  -1.8060  -1.7389  -1.7171  -1.6569  -1.6253
    -1.5353  -1.4524  -1.4339  -1.3516  -1.3120  -1.2446  -1.1433  -1.1317
    -1.0893  -1.0396  -0.9892  -0.9552  -0.8865  -0.8435  -0.7661  -0.6761
    -0.6514  -0.5632  -0.5324  -0.4826  -0.4656  -0.3966  -0.3519  -0.3304
    -0.2952  -0.2185  -0.1316  -0.0684   0.0871   0.2164   0.3345   0.4637
     0.7394   1.2869   1.5095   2.2275   2.3450   2.5669   2.6101   3.0198

          k = 0.0808 0.0233 0.0000 ( 43761 PWs)   bands (ev):

   -91.7984 -91.2278 -91.2109 -91.2105 -91.1888 -91.1836 -83.8446 -83.8337
   -83.4736 -83.4490 -83.4426 -83.4372 -83.4321 -83.4119 -83.3871 -83.3799
   -83.3719 -83.3658 -55.4480 -55.2413 -55.1976 -54.7738 -54.7630 -54.7529
   -54.7258 -54.7226 -54.7144 -54.6934 -54.6699 -54.6665 -54.6564 -54.6539
   -54.6468 -54.6248 -54.6202 -54.6165 -49.8671 -49.7638 -49.5855 -49.5455
   -49.4129 -49.3911 -49.3702 -49.3438 -49.2798 -49.2658 -49.2571 -49.2426
   -49.2287 -49.2165 -49.2067 -49.1931 -49.1768 -49.1671 -49.1642 -49.1506
   -49.1357 -49.1246 -49.1101 -49.1011 -49.0960 -49.0854 -49.0816 -49.0719
   -49.0504 -49.0380 -49.0145 -48.9906 -48.9715 -48.9648 -48.9566 -48.9338
   -13.1726  -5.4064  -5.3210  -5.1515  -5.0852  -5.0171  -4.9867  -4.9510
    -4.8850  -4.8374  -4.7680  -4.7390  -4.6999  -4.6276  -4.5579  -4.5223
    -4.4821  -4.3940  -4.3547  -4.2123  -4.1630  -4.1244  -4.0797  -4.0367
    -4.0105  -3.8980  -3.7946  -3.7462  -3.6769  -3.6394  -3.5238  -3.4662
    -3.4466  -3.3773  -3.3166  -3.2977  -3.2712  -3.1576  -3.0590  -3.0052
    -2.9129  -2.8565  -2.7998  -2.6890  -2.5831  -2.5591  -2.5302  -2.4404
    -2.4084  -2.3291  -2.3176  -2.2366  -2.1657  -2.1369  -2.0744  -2.0267
    -1.9729  -1.8863  -1.8550  -1.8069  -1.7630  -1.7030  -1.6684  -1.6203
    -1.4966  -1.4561  -1.3692  -1.3535  -1.2906  -1.2532  -1.2030  -1.1334
    -1.0949  -1.0436  -0.9893  -0.9304  -0.8779  -0.8190  -0.7903  -0.7122
    -0.6457  -0.5914  -0.5486  -0.5293  -0.4552  -0.4254  -0.3962  -0.3188
    -0.2939  -0.2311  -0.1011  -0.0538   0.0612   0.2360   0.3244   0.4370
     0.7998   1.2029   1.5944   2.2014   2.3881   2.4946   2.6334   3.0492

          k =-0.0606 0.0583 0.0000 ( 43761 PWs)   bands (ev):

   -91.7984 -91.2278 -91.2109 -91.2105 -91.1888 -91.1836 -83.8446 -83.8337
   -83.4739 -83.4490 -83.4424 -83.4364 -83.4324 -83.4124 -83.3870 -83.3801
   -83.3720 -83.3656 -55.4480 -55.2412 -55.1976 -54.7737 -54.7630 -54.7527
   -54.7257 -54.7228 -54.7145 -54.6936 -54.6699 -54.6666 -54.6563 -54.6541
   -54.6467 -54.6248 -54.6202 -54.6165 -49.8682 -49.7623 -49.5859 -49.5440
   -49.4121 -49.3879 -49.3494 -49.3307 -49.2915 -49.2817 -49.2663 -49.2582
   -49.2417 -49.2285 -49.2100 -49.1974 -49.1730 -49.1605 -49.1500 -49.1374
   -49.1299 -49.1227 -49.1062 -49.1020 -49.0939 -49.0887 -49.0834 -49.0713
   -49.0510 -49.0372 -49.0156 -48.9895 -48.9716 -48.9652 -48.9570 -48.9337
   -13.1727  -5.4327  -5.3234  -5.1877  -5.1236  -4.9889  -4.9477  -4.9112
    -4.8798  -4.8082  -4.7835  -4.7638  -4.6846  -4.6383  -4.5728  -4.5086
    -4.4723  -4.4197  -4.3198  -4.2506  -4.1366  -4.1219  -4.0582  -4.0320
    -3.9619  -3.8963  -3.8074  -3.7594  -3.6493  -3.5845  -3.5082  -3.4614
    -3.4174  -3.3842  -3.3372  -3.2885  -3.2234  -3.1324  -3.0742  -2.9925
    -2.9240  -2.8321  -2.7619  -2.7216  -2.7011  -2.6362  -2.5819  -2.5067
    -2.4221  -2.3673  -2.3266  -2.2687  -2.1835  -2.1425  -2.0654  -2.0306
    -1.9596  -1.9431  -1.8802  -1.8543  -1.7867  -1.7463  -1.6908  -1.6133
    -1.5481  -1.4352  -1.3853  -1.3051  -1.2794  -1.2311  -1.1786  -1.1621
    -1.1037  -1.0640  -1.0255  -0.9449  -0.8485  -0.8028  -0.7271  -0.6672
    -0.6299  -0.5323  -0.4710  -0.4363  -0.4177  -0.3724  -0.3478  -0.3297
    -0.2374  -0.1845  -0.1660  -0.0483   0.0355   0.1740   0.3934   0.4902
     0.6950   1.2434   1.5251   2.2303   2.3305   2.5621   2.5985   2.9829

     the Fermi energy is     0.1551 ev

!    total energy              =   -7919.38491160 Ry
     Harris-Foulkes estimate   =   -7919.38491068 Ry
     estimated scf accuracy    <       0.00000006 Ry

     The total energy is the sum of the following terms:

     one-electron contribution =  -32215.04199309 Ry
     hartree contribution      =   16104.78313739 Ry
     xc contribution           =    -545.68715383 Ry
     ewald contribution        =   11799.29298197 Ry
     one-center paw contrib.   =   -3062.69075290 Ry
     smearing contrib. (-TS)   =      -0.04113114 Ry

     convergence has been achieved in  66 iterations

     Forces acting on atoms (Ry/au):


     negative rho (up, down):  2.245E-02 0.000E+00
     atom    1 type  1   force =     0.00722058    0.00541035   -0.02958823
     atom    2 type  2   force =    -0.00245894    0.01319895   -0.01168802
     atom    3 type  1   force =    -0.00523360    0.00759661   -0.03697201
     atom    4 type  2   force =     0.00322405   -0.00693387   -0.01239498
     atom    5 type  2   force =    -0.00450217    0.00124005   -0.02333257
     atom    6 type  2   force =     0.00080275    0.00872602   -0.02154067
     atom    7 type  1   force =     0.00465884   -0.00911589   -0.02969452
     atom    8 type  2   force =    -0.00213766   -0.00697128   -0.01276600
     atom    9 type  1   force =    -0.00523320   -0.00630231   -0.03253320
     atom   10 type  2   force =    -0.00686355    0.00399857    0.01568739
     atom   11 type  1   force =     0.00029043    0.00561688    0.03604330
     atom   12 type  2   force =     0.00888041   -0.00874925    0.02428190
     atom   13 type  2   force =    -0.00131491    0.00798739    0.01341219
     atom   14 type  2   force =    -0.07550918   -0.03829721   -0.00017154
     atom   15 type  2   force =     0.08062503   -0.04533334    0.00843008
     atom   16 type  2   force =    -0.01674502    0.00238179    0.01298252
     atom   17 type  1   force =    -0.00296659    0.12121432   -0.00962210
     atom   18 type  2   force =     0.02002381   -0.00614502    0.01233172
     atom   19 type  3   force =    -0.00101112   -0.02499245   -0.61952000
     atom   20 type  3   force =    -0.00174996   -0.02453033    0.71665472

     Total force =     0.969158     Total SCF correction =     0.000770
 !ASE

     Writing output data file calc.save
     Check: negative starting charge=   -0.018532
     NEW-OLD atomic charge density approx. for the potential

     Check: negative/imaginary core charge=   -0.000001    0.000000
     Check: negative starting charge=   -0.018506

     negative rho (up, down):  2.233E-02 0.000E+00

     total cpu time spent up to now is     6010.9 secs

     per-process dynamical memory:   103.9 Mb

     Self-consistent Calculation

     iteration #  1     ecut=    44.10 Ry     beta=0.05
     CG style diagonalization
     ethr =  2.24E-11,  avg # of iterations = 41.3

     negative rho (up, down):  2.241E-02 0.000E+00

     total cpu time spent up to now is     7221.8 secs

     total energy              =   -7919.56816712 Ry
     Harris-Foulkes estimate   =   -7919.59084199 Ry
     estimated scf accuracy    <       0.03941303 Ry

     iteration #  2     ecut=    44.10 Ry     beta=0.05
     CG style diagonalization
     ethr =  1.19E-05,  avg # of iterations =  3.0

     negative rho (up, down):  2.403E-02 0.000E+00

     total cpu time spent up to now is     7433.0 secs

     total energy              =   -7919.55604902 Ry
     Harris-Foulkes estimate   =   -7919.56817651 Ry
     estimated scf accuracy    <       0.03586243 Ry

     iteration #  3     ecut=    44.10 Ry     beta=0.05
     CG style diagonalization
     ethr =  1.08E-05,  avg # of iterations =  3.1

     negative rho (up, down):  2.461E-02 0.000E+00

     total cpu time spent up to now is     7549.7 secs

     total energy              =   -7919.55817397 Ry
     Harris-Foulkes estimate   =   -7919.55887022 Ry
     estimated scf accuracy    <       0.00400818 Ry

     iteration #  4     ecut=    44.10 Ry     beta=0.05
     CG style diagonalization
     ethr =  1.21E-06,  avg # of iterations =  3.2

     negative rho (up, down):  2.465E-02 0.000E+00

     total cpu time spent up to now is     7640.5 secs

     total energy              =   -7919.55855020 Ry
     Harris-Foulkes estimate   =   -7919.55857567 Ry
     estimated scf accuracy    <       0.00048771 Ry

     iteration #  5     ecut=    44.10 Ry     beta=0.05
     CG style diagonalization
     ethr =  1.47E-07,  avg # of iterations =  3.1

     negative rho (up, down):  2.475E-02 0.000E+00

     total cpu time spent up to now is     7743.8 secs

     total energy              =   -7919.55854935 Ry
     Harris-Foulkes estimate   =   -7919.55858392 Ry
     estimated scf accuracy    <       0.00034263 Ry

     iteration #  6     ecut=    44.10 Ry     beta=0.05
     CG style diagonalization
     ethr =  1.03E-07,  avg # of iterations =  3.0

     negative rho (up, down):  2.500E-02 0.000E+00

     total cpu time spent up to now is     7838.0 secs

     total energy              =   -7919.55852362 Ry
     Harris-Foulkes estimate   =   -7919.55855732 Ry
     estimated scf accuracy    <       0.00021340 Ry

     iteration #  7     ecut=    44.10 Ry     beta=0.05
     CG style diagonalization
     ethr =  6.43E-08,  avg # of iterations =  3.0

     negative rho (up, down):  2.506E-02 0.000E+00

     total cpu time spent up to now is     7917.3 secs

     total energy              =   -7919.55852410 Ry
     Harris-Foulkes estimate   =   -7919.55853295 Ry
     estimated scf accuracy    <       0.00010427 Ry

     iteration #  8     ecut=    44.10 Ry     beta=0.05
     CG style diagonalization
     ethr =  3.14E-08,  avg # of iterations =  3.0

     negative rho (up, down):  2.513E-02 0.000E+00

     total cpu time spent up to now is     8008.6 secs

     total energy              =   -7919.55852042 Ry
     Harris-Foulkes estimate   =   -7919.55853044 Ry
     estimated scf accuracy    <       0.00007351 Ry

     iteration #  9     ecut=    44.10 Ry     beta=0.05
     CG style diagonalization
     ethr =  2.21E-08,  avg # of iterations =  3.0

     negative rho (up, down):  2.514E-02 0.000E+00

     total cpu time spent up to now is     8092.7 secs

     total energy              =   -7919.55852009 Ry
     Harris-Foulkes estimate   =   -7919.55852275 Ry
     estimated scf accuracy    <       0.00003852 Ry

     iteration # 10     ecut=    44.10 Ry     beta=0.05
     CG style diagonalization
     ethr =  1.16E-08,  avg # of iterations =  3.0

     negative rho (up, down):  2.509E-02 0.000E+00

     total cpu time spent up to now is     8169.9 secs

     total energy              =   -7919.55852086 Ry
     Harris-Foulkes estimate   =   -7919.55852288 Ry
     estimated scf accuracy    <       0.00002938 Ry

     iteration # 11     ecut=    44.10 Ry     beta=0.05
     CG style diagonalization
     ethr =  8.85E-09,  avg # of iterations =  3.0

     negative rho (up, down):  2.510E-02 0.000E+00

     total cpu time spent up to now is     8245.7 secs

     total energy              =   -7919.55852153 Ry
     Harris-Foulkes estimate   =   -7919.55852166 Ry
     estimated scf accuracy    <       0.00001946 Ry

     iteration # 12     ecut=    44.10 Ry     beta=0.05
     CG style diagonalization
     ethr =  5.86E-09,  avg # of iterations =  3.0

     negative rho (up, down):  2.509E-02 0.000E+00

     total cpu time spent up to now is     8321.7 secs

     total energy              =   -7919.55852256 Ry
     Harris-Foulkes estimate   =   -7919.55852204 Ry
     estimated scf accuracy    <       0.00001614 Ry

     iteration # 13     ecut=    44.10 Ry     beta=0.05
     CG style diagonalization
     ethr =  4.86E-09,  avg # of iterations =  3.0

     negative rho (up, down):  2.479E-02 0.000E+00

     total cpu time spent up to now is     8397.8 secs

     total energy              =   -7919.55852002 Ry
     Harris-Foulkes estimate   =   -7919.55852266 Ry
     estimated scf accuracy    <       0.00001535 Ry

     iteration # 14     ecut=    44.10 Ry     beta=0.05
     CG style diagonalization
     ethr =  4.62E-09,  avg # of iterations =  3.0

     negative rho (up, down):  2.478E-02 0.000E+00

     total cpu time spent up to now is     8473.7 secs

     total energy              =   -7919.55852104 Ry
     Harris-Foulkes estimate   =   -7919.55852080 Ry
     estimated scf accuracy    <       0.00000995 Ry

     iteration # 15     ecut=    44.10 Ry     beta=0.05
     CG style diagonalization
     ethr =  3.00E-09,  avg # of iterations =  3.0

     negative rho (up, down):  2.476E-02 0.000E+00

     total cpu time spent up to now is     8549.6 secs

     total energy              =   -7919.55852151 Ry
     Harris-Foulkes estimate   =   -7919.55852119 Ry
     estimated scf accuracy    <       0.00000977 Ry

     iteration # 16     ecut=    44.10 Ry     beta=0.05
     CG style diagonalization
     ethr =  2.94E-09,  avg # of iterations =  3.0

     negative rho (up, down):  2.464E-02 0.000E+00

[...]
    -2.9224  -2.9037  -2.8594  -2.8081  -2.7570  -2.6241  -2.5761  -2.4737
    -2.4544  -2.4506  -2.3532  -2.3322  -2.2648  -2.2267  -2.1040  -2.0376
    -2.0082  -1.9585  -1.9167  -1.8733  -1.8359  -1.8095  -1.7517  -1.7185
    -1.6894  -1.6523  -1.5508  -1.4919  -1.4080  -1.3355  -1.2838  -1.2682
    -1.1779  -1.1707  -1.1264  -1.0332  -1.0062  -0.9553  -0.9263  -0.8494
    -0.7863  -0.7299  -0.7069  -0.6983  -0.5925  -0.5556  -0.5048  -0.4777
    -0.3978  -0.3799  -0.3252  -0.1636  -0.0819  -0.0103   0.1029   0.1825
     1.0491   1.1728   1.9217   2.0258   2.2139   2.3042   2.5152   2.6501

          k =-0.0202 0.0350 0.0000 ( 43807 PWs)   bands (ev):

   -91.4815 -91.2489 -91.2144 -91.1790 -91.1639 -91.1544 -83.8949 -83.7632
   -83.6712 -83.6655 -83.6267 -83.6132 -83.5676 -83.5354 -83.5049 -83.4950
   -83.4868 -83.3581 -55.0889 -54.9517 -54.8629 -54.7695 -54.7633 -54.7392
   -54.7354 -54.7328 -54.6863 -54.6845 -54.6658 -54.6508 -54.6392 -54.6381
   -54.6244 -54.5843 -54.5761 -54.5725 -49.9014 -49.7672 -49.6298 -49.6063
   -49.5410 -49.5060 -49.4776 -49.4520 -49.4420 -49.4240 -49.4129 -49.3893
   -49.3795 -49.3645 -49.3555 -49.3325 -49.3136 -49.3042 -49.2666 -49.2589
   -49.2486 -49.2322 -49.2176 -49.2040 -49.1984 -49.1933 -49.1652 -49.1543
   -49.1397 -49.1239 -49.1174 -49.0895 -49.0818 -49.0784 -49.0694 -48.9532
    -7.6454  -6.2461  -5.4052  -5.0553  -5.0219  -4.9437  -4.8827  -4.8316
    -4.7332  -4.6208  -4.5901  -4.5307  -4.4853  -4.4181  -4.3710  -4.3064
    -4.2402  -4.2144  -4.1632  -4.0861  -4.0696  -3.9631  -3.9045  -3.8660
    -3.7893  -3.7355  -3.7315  -3.7058  -3.5993  -3.5752  -3.4950  -3.4196
    -3.3825  -3.3296  -3.2806  -3.2438  -3.2115  -3.1129  -3.0697  -3.0012
    -2.9201  -2.8101  -2.7475  -2.7174  -2.6797  -2.6198  -2.5807  -2.4587
    -2.4207  -2.3773  -2.3318  -2.3009  -2.2633  -2.2399  -2.1697  -2.0797
    -2.0533  -1.9859  -1.9350  -1.8627  -1.8230  -1.7432  -1.7049  -1.6256
    -1.5797  -1.5231  -1.4789  -1.4075  -1.3767  -1.3447  -1.3166  -1.2466
    -1.2034  -1.1751  -1.1108  -1.0466  -1.0038  -0.9066  -0.8720  -0.8201
    -0.7702  -0.7478  -0.6537  -0.6303  -0.5939  -0.5419  -0.4851  -0.4355
    -0.3949  -0.3602  -0.2897  -0.2296  -0.1790  -0.0885   0.1226   0.3113
     0.5434   0.7383   0.9004   1.1657   1.6435   1.9291   2.0594   2.7516

          k = 0.0404 0.0000 0.0000 ( 43807 PWs)   bands (ev):

   -91.4815 -91.2489 -91.2144 -91.1790 -91.1639 -91.1544 -83.8949 -83.7632
   -83.6712 -83.6655 -83.6267 -83.6132 -83.5676 -83.5354 -83.5049 -83.4950
   -83.4868 -83.3581 -55.0889 -54.9517 -54.8629 -54.7695 -54.7634 -54.7392
   -54.7354 -54.7329 -54.6863 -54.6844 -54.6658 -54.6510 -54.6390 -54.6381
   -54.6244 -54.5843 -54.5761 -54.5725 -49.9009 -49.7704 -49.6334 -49.5944
   -49.5389 -49.5124 -49.4738 -49.4538 -49.4454 -49.4269 -49.4160 -49.3960
   -49.3764 -49.3599 -49.3565 -49.3300 -49.3139 -49.2969 -49.2684 -49.2586
   -49.2461 -49.2319 -49.2198 -49.2038 -49.1970 -49.1936 -49.1647 -49.1552
   -49.1397 -49.1243 -49.1180 -49.0906 -49.0835 -49.0777 -49.0696 -48.9532
    -7.6518  -6.2588  -5.3884  -5.0890  -5.0095  -4.9345  -4.8516  -4.7928
    -4.7703  -4.6383  -4.5836  -4.4955  -4.4850  -4.4294  -4.3770  -4.3126
    -4.2398  -4.2110  -4.1490  -4.0855  -4.0452  -3.9421  -3.9319  -3.8577
    -3.8120  -3.7783  -3.7242  -3.6690  -3.5872  -3.5277  -3.5054  -3.4452
    -3.3934  -3.3336  -3.3097  -3.2140  -3.1221  -3.1133  -3.0534  -3.0042
    -2.9409  -2.9061  -2.8178  -2.7597  -2.6971  -2.6309  -2.5578  -2.5057
    -2.4471  -2.3530  -2.3151  -2.3024  -2.2512  -2.1715  -2.1397  -2.0610
    -2.0303  -1.9892  -1.9227  -1.8410  -1.8190  -1.7617  -1.7193  -1.6428
    -1.5809  -1.5474  -1.4813  -1.4486  -1.3987  -1.3282  -1.2653  -1.2202
    -1.1824  -1.1523  -1.0989  -1.0521  -0.9680  -0.9293  -0.8927  -0.8506
    -0.8043  -0.7317  -0.6862  -0.6281  -0.5889  -0.5514  -0.5193  -0.4488
    -0.3988  -0.3849  -0.3199  -0.2332  -0.1666  -0.0688   0.1122   0.3057
     0.5704   0.7233   1.0163   1.1961   1.5966   1.8620   2.0797   2.8363

          k =-0.0202-0.0816 0.0000 ( 43761 PWs)   bands (ev):

   -91.4815 -91.2489 -91.2144 -91.1790 -91.1639 -91.1544 -83.8949 -83.7632
   -83.6712 -83.6655 -83.6270 -83.6130 -83.5675 -83.5353 -83.5049 -83.4955
   -83.4864 -83.3581 -55.0889 -54.9517 -54.8629 -54.7694 -54.7635 -54.7393
   -54.7356 -54.7329 -54.6864 -54.6843 -54.6658 -54.6507 -54.6391 -54.6378
   -54.6244 -54.5843 -54.5761 -54.5725 -49.9022 -49.7675 -49.6344 -49.6067
   -49.5396 -49.5087 -49.4749 -49.4491 -49.4363 -49.4190 -49.4075 -49.3881
   -49.3840 -49.3680 -49.3532 -49.3420 -49.3149 -49.2806 -49.2680 -49.2586
   -49.2491 -49.2329 -49.2208 -49.2127 -49.2008 -49.1939 -49.1657 -49.1541
   -49.1395 -49.1239 -49.1173 -49.0888 -49.0828 -49.0778 -49.0691 -48.9531
    -7.6053  -6.2271  -5.2027  -5.0636  -4.9555  -4.8938  -4.8540  -4.7556
    -4.7049  -4.6294  -4.5535  -4.5312  -4.4950  -4.4236  -4.3707  -4.3352
    -4.2465  -4.2255  -4.1389  -4.0892  -4.0328  -3.9629  -3.9270  -3.8881
    -3.8298  -3.8159  -3.8024  -3.7215  -3.6941  -3.6311  -3.5216  -3.4684
    -3.4239  -3.3460  -3.3054  -3.2369  -3.2247  -3.1664  -3.1024  -3.0487
    -2.9396  -2.8250  -2.8000  -2.7527  -2.6650  -2.6325  -2.5929  -2.5597
    -2.5014  -2.4503  -2.3806  -2.3491  -2.3000  -2.2316  -2.1828  -2.1509
    -2.0745  -2.0301  -1.9351  -1.8781  -1.8407  -1.7733  -1.7031  -1.6663
    -1.6053  -1.5576  -1.5238  -1.4570  -1.4307  -1.3752  -1.3397  -1.2827
    -1.2326  -1.1958  -1.1310  -1.0525  -1.0015  -0.8935  -0.8805  -0.8383
    -0.7967  -0.7487  -0.6635  -0.6232  -0.6073  -0.5324  -0.5041  -0.4160
    -0.3644  -0.3369  -0.2589  -0.1715  -0.1028   0.0613   0.0967   0.4046
     0.6714   1.1603   1.6458   1.7711   2.2585   2.3721   2.4236   2.8720

          k = 0.0808-0.0233 0.0000 ( 43761 PWs)   bands (ev):

   -91.4815 -91.2489 -91.2144 -91.1790 -91.1639 -91.1544 -83.8949 -83.7632
   -83.6713 -83.6655 -83.6267 -83.6132 -83.5675 -83.5354 -83.5049 -83.4950
   -83.4868 -83.3581 -55.0889 -54.9517 -54.8629 -54.7695 -54.7635 -54.7392
   -54.7356 -54.7329 -54.6863 -54.6844 -54.6658 -54.6508 -54.6389 -54.6381
   -54.6244 -54.5843 -54.5761 -54.5725 -49.9018 -49.7700 -49.6318 -49.6003
   -49.5366 -49.5082 -49.4723 -49.4529 -49.4461 -49.4249 -49.4085 -49.3941
   -49.3794 -49.3672 -49.3554 -49.3308 -49.3099 -49.3006 -49.2656 -49.2607
   -49.2493 -49.2327 -49.2143 -49.2050 -49.1979 -49.1930 -49.1653 -49.1549
   -49.1398 -49.1243 -49.1182 -49.0898 -49.0828 -49.0790 -49.0691 -48.9531
    -7.6178  -6.2196  -5.1810  -5.0562  -5.0112  -4.8884  -4.8339  -4.7987
    -4.7074  -4.6377  -4.5639  -4.5120  -4.4871  -4.4247  -4.3768  -4.3037
    -4.2382  -4.1692  -4.1285  -4.0812  -4.0057  -3.9763  -3.9358  -3.9030
    -3.8432  -3.8088  -3.7555  -3.6911  -3.6783  -3.6088  -3.5163  -3.4722
    -3.3884  -3.3601  -3.3176  -3.2708  -3.2148  -3.1949  -3.1228  -3.0321
    -2.9528  -2.8896  -2.8422  -2.7572  -2.7158  -2.6552  -2.6352  -2.5662
    -2.4782  -2.4588  -2.3848  -2.3443  -2.3302  -2.2457  -2.1731  -2.1250
    -2.0885  -2.0240  -1.9236  -1.8822  -1.8356  -1.7550  -1.7049  -1.6515
    -1.6084  -1.5585  -1.5408  -1.4749  -1.4270  -1.3650  -1.3205  -1.2496
    -1.2090  -1.1920  -1.1268  -1.0657  -0.9980  -0.9108  -0.8729  -0.8241
    -0.8022  -0.7049  -0.6703  -0.6175  -0.5702  -0.5265  -0.4927  -0.4209
    -0.3877  -0.2881  -0.2304  -0.1523  -0.1096  -0.0361   0.1956   0.3552
     0.6151   1.1801   1.5635   1.9708   2.1343   2.3536   2.4374   2.8452

          k =-0.0606-0.0583 0.0000 ( 43761 PWs)   bands (ev):

   -91.4815 -91.2489 -91.2144 -91.1790 -91.1639 -91.1544 -83.8949 -83.7632
   -83.6712 -83.6656 -83.6269 -83.6130 -83.5675 -83.5354 -83.5049 -83.4955
   -83.4864 -83.3581 -55.0889 -54.9517 -54.8629 -54.7694 -54.7636 -54.7392
   -54.7356 -54.7330 -54.6863 -54.6842 -54.6657 -54.6510 -54.6388 -54.6378
   -54.6244 -54.5843 -54.5761 -54.5725 -49.9014 -49.7721 -49.6377 -49.5917
   -49.5375 -49.5143 -49.4729 -49.4539 -49.4405 -49.4187 -49.4104 -49.4005
   -49.3843 -49.3618 -49.3532 -49.3393 -49.3015 -49.2809 -49.2685 -49.2595
   -49.2458 -49.2326 -49.2205 -49.2162 -49.1983 -49.1940 -49.1648 -49.1557
   -49.1397 -49.1244 -49.1182 -49.0903 -49.0850 -49.0770 -49.0696 -48.9531
    -7.6156  -6.2470  -5.1464  -5.0568  -4.9503  -4.9110  -4.8104  -4.7893
    -4.7028  -4.6240  -4.5688  -4.5529  -4.4992  -4.4230  -4.3860  -4.3187
    -4.2524  -4.1824  -4.1469  -4.0642  -3.9869  -3.9473  -3.9316  -3.8972
    -3.8673  -3.8193  -3.7652  -3.7182  -3.6762  -3.5687  -3.5360  -3.5129
    -3.4014  -3.3427  -3.3068  -3.2535  -3.2237  -3.1832  -3.1235  -3.0074
    -2.9529  -2.9256  -2.8672  -2.8339  -2.7069  -2.6811  -2.6157  -2.5113
    -2.4559  -2.4268  -2.3985  -2.3045  -2.2647  -2.1977  -2.1437  -2.1071
    -2.0754  -1.9849  -1.9290  -1.8708  -1.8335  -1.7686  -1.7271  -1.6747
    -1.6586  -1.6222  -1.5355  -1.4932  -1.4194  -1.3692  -1.2936  -1.2508
    -1.1866  -1.1480  -1.1092  -1.0475  -1.0414  -0.9402  -0.9035  -0.8243
    -0.8179  -0.7383  -0.6934  -0.6267  -0.6015  -0.5595  -0.5157  -0.4522
    -0.3974  -0.3683  -0.3228  -0.1468  -0.0574   0.0646   0.1386   0.3818
     0.6369   1.2203   1.6543   1.9876   2.1673   2.3130   2.5221   2.7571

          k = 0.0808 0.0233 0.0000 ( 43761 PWs)   bands (ev):

   -91.4815 -91.2489 -91.2144 -91.1790 -91.1639 -91.1544 -83.8949 -83.7632
   -83.6711 -83.6656 -83.6271 -83.6129 -83.5675 -83.5353 -83.5049 -83.4957
   -83.4862 -83.3581 -55.0889 -54.9517 -54.8629 -54.7694 -54.7636 -54.7393
   -54.7356 -54.7330 -54.6864 -54.6841 -54.6658 -54.6510 -54.6390 -54.6376
   -54.6244 -54.5843 -54.5761 -54.5725 -49.9015 -49.7710 -49.6391 -49.5951
   -49.5400 -49.5113 -49.4754 -49.4541 -49.4388 -49.4129 -49.4087 -49.3946
   -49.3853 -49.3637 -49.3524 -49.3468 -49.3055 -49.2718 -49.2627 -49.2551
   -49.2442 -49.2396 -49.2293 -49.2182 -49.1993 -49.1939 -49.1652 -49.1551
   -49.1396 -49.1241 -49.1177 -49.0896 -49.0848 -49.0766 -49.0696 -48.9531
    -7.6093  -6.2518  -5.1623  -5.0235  -4.9409  -4.8666  -4.8463  -4.7941
    -4.7324  -4.6076  -4.5680  -4.5377  -4.5142  -4.4314  -4.3661  -4.3348
    -4.2652  -4.2220  -4.1562  -4.0850  -3.9966  -3.9713  -3.9020  -3.8893
    -3.8713  -3.8238  -3.7567  -3.7166  -3.6903  -3.5765  -3.5441  -3.4854
    -3.3674  -3.3490  -3.2813  -3.2494  -3.2259  -3.1999  -3.1207  -3.0305
    -2.9302  -2.8878  -2.8439  -2.7978  -2.7665  -2.6679  -2.5891  -2.5150
    -2.4846  -2.4306  -2.3909  -2.3209  -2.2602  -2.2108  -2.1469  -2.1058
    -2.0196  -2.0059  -1.9283  -1.8877  -1.8223  -1.7801  -1.7331  -1.6775
    -1.6496  -1.6257  -1.5375  -1.4452  -1.4218  -1.3552  -1.3140  -1.2302
    -1.1545  -1.1379  -1.1178  -1.0686  -1.0185  -0.9945  -0.9365  -0.8402
    -0.7817  -0.7340  -0.6872  -0.6441  -0.6300  -0.5581  -0.5225  -0.4786
    -0.4062  -0.3846  -0.2890  -0.1678  -0.1031   0.1041   0.1944   0.3246
     0.6753   1.2018   1.5987   2.0451   2.1815   2.3063   2.4826   2.9298

          k =-0.0606 0.0583 0.0000 ( 43761 PWs)   bands (ev):

   -91.4815 -91.2489 -91.2144 -91.1790 -91.1639 -91.1544 -83.8949 -83.7631
   -83.6713 -83.6655 -83.6267 -83.6132 -83.5675 -83.5354 -83.5049 -83.4950
   -83.4868 -83.3581 -55.0889 -54.9517 -54.8629 -54.7695 -54.7635 -54.7392
   -54.7356 -54.7330 -54.6863 -54.6844 -54.6657 -54.6508 -54.6388 -54.6380
   -54.6244 -54.5843 -54.5761 -54.5725 -49.9016 -49.7714 -49.6330 -49.5949
   -49.5352 -49.5114 -49.4705 -49.4545 -49.4472 -49.4258 -49.4103 -49.3986
   -49.3780 -49.3644 -49.3557 -49.3299 -49.3110 -49.2960 -49.2667 -49.2604
   -49.2483 -49.2327 -49.2151 -49.2046 -49.1973 -49.1931 -49.1648 -49.1555
   -49.1399 -49.1245 -49.1185 -49.0904 -49.0837 -49.0786 -49.0692 -48.9531
    -7.6211  -6.2260  -5.1560  -5.0857  -5.0177  -4.8727  -4.8202  -4.7663
    -4.7081  -4.6508  -4.5622  -4.5149  -4.4750  -4.4316  -4.4105  -4.2845
    -4.2625  -4.1700  -4.1358  -4.0715  -3.9985  -3.9682  -3.9194  -3.9070
    -3.8284  -3.7977  -3.7553  -3.7269  -3.6572  -3.5842  -3.5317  -3.4766
    -3.4026  -3.3471  -3.3260  -3.2716  -3.2167  -3.1711  -3.0855  -3.0427
    -2.9826  -2.9213  -2.8591  -2.8302  -2.6944  -2.6579  -2.6271  -2.5338
    -2.5029  -2.4692  -2.4012  -2.3136  -2.2716  -2.2194  -2.1609  -2.1389
    -2.0733  -2.0437  -1.9420  -1.9059  -1.8212  -1.7741  -1.7035  -1.6741
    -1.6426  -1.5992  -1.5060  -1.4695  -1.4010  -1.3330  -1.3111  -1.2372
    -1.2109  -1.1761  -1.1373  -1.0755  -0.9700  -0.9168  -0.8950  -0.8304
    -0.7878  -0.7241  -0.6555  -0.6039  -0.5733  -0.5265  -0.5178  -0.4325
    -0.4041  -0.3343  -0.2364  -0.1525  -0.1003   0.0024   0.2386   0.3590
     0.5547   1.1671   1.6145   1.9837   2.1512   2.3139   2.5339   2.7761

     the Fermi energy is     0.0328 ev

!    total energy              =   -7919.67030160 Ry
     Harris-Foulkes estimate   =   -7919.67029768 Ry
     estimated scf accuracy    <       0.00000005 Ry

     The total energy is the sum of the following terms:

     one-electron contribution =  -31261.75989982 Ry
     hartree contribution      =   15627.66001666 Ry
     xc contribution           =    -545.03664836 Ry
     ewald contribution        =   11322.19530402 Ry
     one-center paw contrib.   =   -3062.69000233 Ry
     smearing contrib. (-TS)   =      -0.03907178 Ry

     convergence has been achieved in  46 iterations

     Forces acting on atoms (Ry/au):


     negative rho (up, down):  2.201E-02 0.000E+00
     atom    1 type  1   force =    -0.00015939    0.00243504   -0.00612499
     atom    2 type  2   force =    -0.00109906    0.00974066   -0.00485320
     atom    3 type  1   force =    -0.00145355    0.00203704    0.00642326
     atom    4 type  2   force =     0.00260174   -0.00378123    0.01259875
     atom    5 type  2   force =    -0.00291470    0.00873122    0.00472710
     atom    6 type  2   force =     0.00096675    0.00121755    0.00102479
     atom    7 type  1   force =     0.00593794   -0.00871758    0.00485279
     atom    8 type  2   force =    -0.01633832    0.00647498    0.00485856
     atom    9 type  1   force =     0.00594625   -0.00464445    0.00144293
     atom   10 type  2   force =     0.00361126   -0.02295576   -0.00398635
     atom   11 type  1   force =     0.01918068    0.00060981    0.01064019
     atom   12 type  2   force =    -0.00315568   -0.04428158   -0.04224028
     atom   13 type  2   force =    -0.00721924    0.00932570   -0.00392238
     atom   14 type  2   force =    -0.01236251   -0.00901092   -0.01250257
     atom   15 type  2   force =     0.01042423    0.01116404   -0.00776700
     atom   16 type  2   force =    -0.00012436    0.00241337   -0.00261382
     atom   17 type  1   force =    -0.01530285   -0.00048822    0.00611477
     atom   18 type  2   force =     0.01645662    0.00005768   -0.00547033
     atom   19 type  3   force =    -0.00036149   -0.01327821   -0.00001681
     atom   20 type  3   force =    -0.00463433    0.05295086    0.03681457

     Total force =     0.107705     Total SCF correction =     0.001109
 !ASE

     Writing output data file calc.save
     Check: negative starting charge=   -0.018288
     NEW-OLD atomic charge density approx. for the potential

     Check: negative/imaginary core charge=   -0.000001    0.000000
     Check: negative starting charge=   -0.018195

     negative rho (up, down):  2.122E-02 0.000E+00

     total cpu time spent up to now is    54694.0 secs

     per-process dynamical memory:   105.9 Mb

     Self-consistent Calculation

     iteration #  1     ecut=    44.10 Ry     beta=0.05
     CG style diagonalization
     c_bands:  1 eigenvalues not converged
     ethr =  3.29E-11,  avg # of iterations = 46.3

     negative rho (up, down):  2.134E-02 0.000E+00

     total cpu time spent up to now is    56066.7 secs

     total energy              =   -7919.69800937 Ry
     Harris-Foulkes estimate   =   -7919.91672457 Ry
     estimated scf accuracy    <       0.03226031 Ry

     iteration #  2     ecut=    44.10 Ry     beta=0.05
     CG style diagonalization
     ethr =  9.72E-06,  avg # of iterations =  3.0

     negative rho (up, down):  2.264E-02 0.000E+00

     total cpu time spent up to now is    56144.6 secs

     total energy              =   -7919.68650536 Ry
     Harris-Foulkes estimate   =   -7919.69802807 Ry
     estimated scf accuracy    <       0.02799555 Ry

     iteration #  3     ecut=    44.10 Ry     beta=0.05
     CG style diagonalization
     ethr =  8.43E-06,  avg # of iterations =  3.0

     negative rho (up, down):  2.410E-02 0.000E+00

     total cpu time spent up to now is    56222.1 secs

     total energy              =   -7919.68484064 Ry
     Harris-Foulkes estimate   =   -7919.68813239 Ry
     estimated scf accuracy    <       0.00811561 Ry

     iteration #  4     ecut=    44.10 Ry     beta=0.05
     CG style diagonalization
     ethr =  2.44E-06,  avg # of iterations =  3.0

     negative rho (up, down):  2.560E-02 0.000E+00

     total cpu time spent up to now is    56301.7 secs

     total energy              =   -7919.68463194 Ry
     Harris-Foulkes estimate   =   -7919.68521382 Ry
     estimated scf accuracy    <       0.00214451 Ry

     iteration #  5     ecut=    44.10 Ry     beta=0.05
     CG style diagonalization
     ethr =  6.46E-07,  avg # of iterations =  3.4

     negative rho (up, down):  2.534E-02 0.000E+00

     total cpu time spent up to now is    56392.9 secs

     total energy              =   -7919.68473543 Ry
     Harris-Foulkes estimate   =   -7919.68490649 Ry
     estimated scf accuracy    <       0.00056189 Ry

     iteration #  6     ecut=    44.10 Ry     beta=0.05
     CG style diagonalization
     ethr =  1.69E-07,  avg # of iterations =  3.1

     negative rho (up, down):  2.558E-02 0.000E+00

     total cpu time spent up to now is    56473.5 secs

     total energy              =   -7919.68472753 Ry
     Harris-Foulkes estimate   =   -7919.68477528 Ry
     estimated scf accuracy    <       0.00030437 Ry

     iteration #  7     ecut=    44.10 Ry     beta=0.05
     CG style diagonalization
     ethr =  9.17E-08,  avg # of iterations =  3.1

     negative rho (up, down):  2.546E-02 0.000E+00

     total cpu time spent up to now is    56554.3 secs

     total energy              =   -7919.68475628 Ry
     Harris-Foulkes estimate   =   -7919.68475314 Ry
     estimated scf accuracy    <       0.00012544 Ry

     iteration #  8     ecut=    44.10 Ry     beta=0.05
     CG style diagonalization
     ethr =  3.78E-08,  avg # of iterations =  3.0

     negative rho (up, down):  2.560E-02 0.000E+00

     total cpu time spent up to now is    56634.4 secs

     total energy              =   -7919.68473099 Ry
     Harris-Foulkes estimate   =   -7919.68476221 Ry
     estimated scf accuracy    <       0.00012114 Ry

     iteration #  9     ecut=    44.10 Ry     beta=0.05
     CG style diagonalization
     ethr =  3.65E-08,  avg # of iterations =  3.0

     negative rho (up, down):  2.574E-02 0.000E+00

     total cpu time spent up to now is    56712.6 secs

     total energy              =   -7919.68473924 Ry
     Harris-Foulkes estimate   =   -7919.68473745 Ry
     estimated scf accuracy    <       0.00005613 Ry

     iteration # 10     ecut=    44.10 Ry     beta=0.05
     CG style diagonalization
     ethr =  1.69E-08,  avg # of iterations =  3.5

     negative rho (up, down):  2.560E-02 0.000E+00

     total cpu time spent up to now is    56805.3 secs

     total energy              =   -7919.68474734 Ry
     Harris-Foulkes estimate   =   -7919.68475101 Ry
     estimated scf accuracy    <       0.00007955 Ry

     iteration # 11     ecut=    44.10 Ry     beta=0.05
     CG style diagonalization
     ethr =  1.69E-08,  avg # of iterations =  3.0

     negative rho (up, down):  2.548E-02 0.000E+00

     total cpu time spent up to now is    56883.1 secs

     total energy              =   -7919.68474650 Ry
     Harris-Foulkes estimate   =   -7919.68474900 Ry
     estimated scf accuracy    <       0.00005662 Ry

     iteration # 12     ecut=    44.10 Ry     beta=0.05
     CG style diagonalization
